4
energy=-34.30649293 config_type=nep2xyz pbc="T T T" virial="8.694366577036934 -1.9146315897283013 0.4938795247638186 -1.9146315897283013 11.325516817175105 0.7015627819957656 0.4938795247638186 0.7015627819957656 -0.07307391981377477" Lattice="2.442304322 0.0 0.0 1.251430696 2.108903313 0.0 -0.532591226 0.219854951 50.717073423" Properties=species:S:1:pos:R:3:force:R:3
C 3.49624 2.06822 10.13825 5.331467 8.333379 -0.581324
C 1.24781 0.8433 10.06603 -5.330964 -8.333782 0.581809
C 2.26506 0.18082 19.88633 -7.496631 -6.940393 0.194369
C 0.9524 0.75307 19.90072 7.496128 6.940796 -0.194855
4
energy=-32.93883231 config_type=nep2xyz pbc="T T T" virial="7.911063953235381 4.2923535385266804 -1.6549740037710208 4.2923535385266804 -0.4831706051643413 -1.1857102635497305 -1.6549740037710208 -1.1857102635497305 12.74319073320376" Lattice="2.427345762 0.0 0.0 1.202200864 2.169494536 0.0 0.028096158 0.501003201 49.613770259" Properties=species:S:1:pos:R:3:force:R:3
C 1.31839 2.26818 9.97246 -7.400539 -1.2312 -4.6942
C 1.18401 0.84016 9.82726 7.505269 1.748514 -1.881174
C 2.41877 2.21865 11.90257 -6.966117 0.707951 2.992714
C 2.27401 0.85348 11.84892 6.861387 -1.225265 3.58266
4
energy=-35.50775132 config_type=nep2xyz pbc="T T T" virial="6.110599883949909 -3.636140861165753 0.367157728164803 -3.636140861165753 9.771220154998376 0.13660058167226188 0.367157728164803 0.13660058167226188 -0.03125572813005444" Lattice="2.430333495 0.0 0.0 1.238522031 2.100440712 0.0 -0.621562021 -0.47437544 49.948474358" Properties=species:S:1:pos:R:3:force:R:3
C 1.08058 1.89943 10.0116 5.859714 7.272505 -0.525534
C 1.23163 0.6396 9.96477 -5.861444 -7.270538 0.499193
C 0.98486 0.60997 13.7941 1.302872 -2.965823 -1.098279
C 2.22369 1.25751 13.72595 -1.301143 2.963856 1.124621
4
energy=-33.0253703 config_type=nep2xyz pbc="T T T" virial="5.077708490708342 -3.5871471982228327 -1.1515610230282363 -3.5871471982228327 10.794957773916279 -0.438248125829237 -1.1515610230282363 -0.438248125829237 9.033760220444522" Lattice="2.448646907 0.0 0.0 1.235702035 2.12743502 0.0 0.070935238 -0.882329059 50.129797519" Properties=species:S:1:pos:R:3:force:R:3
C 3.63881 1.85071 10.05207 2.620032 12.925179 -1.383961
C 1.28899 0.63777 10.10534 -2.581873 -12.881427 -2.828629
C 3.65471 1.84695 12.2237 7.826098 -2.970235 3.624528
C 1.34202 0.38854 12.3419 -7.864257 2.926483 0.588062
4
energy=-34.55822879 config_type=nep2xyz pbc="T T T" virial="-1.6577115665093163 -0.2831953864402454 -1.12314554335131 -0.2831953864402454 3.5568420286717832 -1.521902984194898 -1.12314554335131 -1.521902984194898 -1.4378089801687293" Lattice="2.504626663 0.0 0.0 1.290079249 2.153319595 0.0 0.444932729 -0.985022589 50.700813107" Properties=species:S:1:pos:R:3:force:R:3
C 1.51918 1.88132 10.22557 -5.946198 3.662821 -1.982112
C 1.30104 0.55581 10.07289 5.94644 -3.66095 1.983374
C 3.9113 1.7926 17.24599 0.779509 7.524799 4.011187
C 1.41172 0.50712 17.52246 -0.779752 -7.526671 -4.012448
4
energy=-32.52144985 config_type=nep2xyz pbc="T T T" virial="9.590296760250228 -6.3046552098243565 -0.6042484181900255 -6.3046552098243565 4.744925679215106 -0.031917844834808806 -0.6042484181900255 -0.031917844834808806 13.83279493726105" Lattice="2.433461263 0.0 0.0 1.258366935 2.139638761 0.0 -0.878953603 -0.807709507 50.569086145" Properties=species:S:1:pos:R:3:force:R:3
C 1.04125 1.90742 10.10288 0.696595 1.788563 -2.453893
C 1.02679 0.51362 10.22362 -0.11069 -2.039962 -4.678278
C 0.85676 0.55865 12.15216 14.718846 -7.302187 2.260544
C 2.29937 1.22266 12.11234 -15.304751 7.553586 4.871627
4
energy=-36.39859265 config_type=nep2xyz pbc="T T T" virial="-3.7784603513699624 -1.398009862139068 -0.04489989506050313 -1.398009862139068 -4.922867882226575 -0.10201920937745992 -0.04489989506050313 -0.10201920937745992 2.8533059147220623" Lattice="2.507596398 0.0 0.0 1.285275302 2.173561789 0.0 0.708227254 -0.719441253 50.055165105" Properties=species:S:1:pos:R:3:force:R:3
C 2.6003 -0.1268 10.00208 -0.884602 -1.629457 -1.514687
C 1.33743 0.56188 9.94793 0.896829 1.611896 0.405257
C 1.36526 0.54984 12.65388 0.950371 -1.495861 -0.126809
C 2.64498 1.24214 12.61637 -0.962598 1.513423 1.23624
4
energy=-34.65093298 config_type=nep2xyz pbc="T T T" virial="6.321912761191621 -4.386166804906612 0.07649214502962803 -4.386166804906612 13.558748072288632 -0.9915349202352647 0.07649214502962803 -0.9915349202352647 -0.09888931696378209" Lattice="2.433988569 0.0 0.0 1.216262386 2.102419476 0.0 0.273380383 -0.516673368 50.188832347" Properties=species:S:1:pos:R:3:force:R:3
C 3.62827 1.90802 10.03364 2.842844 11.646052 0.904957
C 1.29316 0.68135 10.1146 -2.841742 -11.646757 -0.906092
C 3.59071 1.93413 14.34225 10.290761 -1.635476 -0.37326
C 1.3397 0.54757 14.31248 -10.291864 1.636182 0.374395
4
energy=-36.67081078 config_type=nep2xyz pbc="T T T" virial="0.25244705537907025 -0.11049339463779785 0.0 -0.11049339463779785 0.2771261738973735 0.0 0.0 0.0 2.51118507358217" Lattice="2.46168 0.0 0.0 1.2325 2.13212 0.0 0.0 0.0 50.0" Properties=species:S:1:pos:R:3:force:R:3
C 3.69252 2.1308 10.0 0.072734 0.048176 -0.439531
C 1.23084 0.71027 10.0 -0.072734 -0.048176 -0.439531
C 3.69252 2.1308 12.9 0.072734 0.048176 0.439531
C 1.23084 0.71027 12.9 -0.072734 -0.048176 0.439531
4
energy=-33.89594303 config_type=nep2xyz pbc="T T T" virial="6.020337629728151 -2.4970636854843886 -0.1937147169541336 -2.4970636854843886 7.6014977401785755 -0.08765553502939377 -0.1937147169541336 -0.08765553502939377 6.9296815216247785" Lattice="2.43784741 0.0 0.0 1.239206547 2.132946461 0.0 0.217078604 0.259851406 50.707182989" Properties=species:S:1:pos:R:3:force:R:3
C 2.42911 0.11142 10.20261 -1.92319 -2.497532 -2.667912
C 1.18858 0.781 10.12723 1.981125 2.517723 -0.448122
C 2.40491 2.06057 12.43344 4.91663 8.505301 1.497929
C 2.60075 0.84099 12.41585 -4.974564 -8.525492 1.618105
4
energy=-36.22964464 config_type=nep2xyz pbc="T T T" virial="3.7164261938837564 -0.9620880094396178 -0.7510200565417665 -0.9620880094396178 4.580411644770645 0.48320472807206116 -0.7510200565417665 0.48320472807206116 0.5611427137601429" Lattice="2.461355586 0.0 0.0 1.207455202 2.092183992 0.0 0.631321947 0.824298674 50.832285957" Properties=species:S:1:pos:R:3:force:R:3
C 2.56623 0.18535 10.1085 3.411109 -1.346798 0.642197
C 1.38736 0.85848 10.15464 -3.413205 1.349071 -0.884985
C 2.57811 0.21988 13.36766 5.622657 -3.88726 1.778286
C 1.42963 0.84808 13.47494 -5.620561 3.884987 -1.535498
4
energy=-35.46604932 config_type=nep2xyz pbc="T T T" virial="7.194875964434244 3.546726117570537 -1.8803866556631994 3.546726117570537 3.067239805591689 -0.5969895326057533 -1.8803866556631994 -0.5969895326057533 -0.32542497172035234" Lattice="2.433403307 0.0 0.0 1.224739151 2.136372467 0.0 0.823905815 0.94407069 50.381733916" Properties=species:S:1:pos:R:3:force:R:3
C 0.24839 0.2039 10.22948 -10.954692 -4.880783 -1.770303
C 1.28611 0.86637 10.08367 10.950126 4.88183 1.747485
C 1.52374 2.32356 14.12159 -3.196638 1.289102 -1.442163
C 1.45656 0.92983 14.03292 3.201205 -1.290149 1.46498
4
energy=-35.56881124 config_type=nep2xyz pbc="T T T" virial="0.46200253330275526 -0.09514081098663596 -0.005139913314557349 -0.09514081098663596 0.47748451566387573 -0.0010794145552241216 -0.005139913314557349 -0.0010794145552241216 8.716485468020789" Lattice="2.46168 0.0 0.0 1.2325 2.13212 0.0 0.0 0.0 50.0" Properties=species:S:1:pos:R:3:force:R:3
C 3.69252 2.1308 10.0 0.065385 0.044769 -2.381896
C 1.23084 0.71027 10.0 -0.063262 -0.044404 -1.584008
C 1.23084 0.71027 12.2 0.063262 0.044404 1.584008
C 2.46334 1.42185 12.2 -0.065385 -0.044769 2.381896
4
energy=-36.68854987 config_type=nep2xyz pbc="T T T" virial="-3.0496333755552136 -0.13927663217454284 -0.07762397783501561 -0.13927663217454284 -2.416004282495479 0.0010566944301692014 -0.07762397783501561 0.0010566944301692014 1.1256926014331807" Lattice="2.499368377 0.0 0.0 1.241176474 2.154925052 0.0 0.300001704 0.522669448 49.269333696" Properties=species:S:1:pos:R:3:force:R:3
C 2.53357 0.12664 9.83915 -0.159599 -0.263929 -0.744767
C 1.27917 0.83862 9.80627 0.178059 0.260749 0.359454
C 1.36036 0.16863 12.84644 3.032568 0.11036 0.247059
C 2.67 0.89285 12.84984 -3.051028 -0.10718 0.138254
4
energy=-35.67811925 config_type=nep2xyz pbc="T T T" virial="1.7047779048870189 1.1916361804284021 -0.44286726538121274 1.1916361804284021 -2.874927414382489 0.2774816746087923 -0.44286726538121274 0.2774816746087923 5.508079670396087" Lattice="2.449312587 0.0 0.0 1.202829037 2.171759343 0.0 0.780071958 0.157381496 49.48599159" Properties=species:S:1:pos:R:3:force:R:3
C 3.76756 2.14236 9.99937 -3.561752 3.248644 -2.632034
C 1.25389 0.77598 9.90366 3.590058 -3.231048 0.2735
C 1.32884 0.04974 12.35168 2.378349 -0.931138 1.412272
C 2.58811 0.76086 12.36544 -2.406656 0.913541 0.946262
4
energy=-36.01222167 config_type=nep2xyz pbc="T T T" virial="-1.2347835085955041 1.7334225425204128 -1.2137025164492472 1.7334225425204128 -2.235952182806126 -0.17690895206078266 -1.2137025164492472 -0.17690895206078266 -1.2617972124749834" Lattice="2.489780643 0.0 0.0 1.226420478 2.1591175 0.0 0.046592769 -0.66210731 50.175345726" Properties=species:S:1:pos:R:3:force:R:3
C 2.43159 -0.10465 10.11988 -2.274107 -1.498859 -1.121045
C 1.13949 0.5866 10.05205 2.268671 1.501108 1.119778
C 1.26646 0.4876 16.33585 -3.955916 -0.27805 -4.322738
C 2.41382 1.21228 16.06854 3.961352 0.2758 4.324006
4
energy=-34.8281031 config_type=nep2xyz pbc="T T T" virial="4.586934830350731 5.038622264317674 0.043143548443555356 5.038622264317674 7.153394524261912 -0.43405561700020723 0.043143548443555356 -0.43405561700020723 -0.10887130594532346" Lattice="2.50857754 0.0 0.0 1.238334494 2.095958002 0.0 -0.228091299 -0.873866237 49.559624693" Properties=species:S:1:pos:R:3:force:R:3
C 0.05527 -0.12127 9.86627 -8.766388 0.033649 0.893092
C 1.10379 0.61713 9.94023 8.765343 -0.03406 -0.903284
C 1.29278 0.50023 13.89417 -9.17755 -6.529613 -0.854232
C 2.40475 1.07591 13.82757 9.178594 6.530024 0.864423
4
energy=-34.59079475 config_type=nep2xyz pbc="T T T" virial="2.199279607444721 -3.1818482065615967 0.5655448200420089 -3.1818482065615967 9.02395999901645 -0.3642345017443351 0.5655448200420089 -0.3642345017443351 2.033333984054771" Lattice="2.485201156 0.0 0.0 1.285804698 2.124427658 0.0 -0.429715734 0.783171851 50.629357059" Properties=species:S:1:pos:R:3:force:R:3
C 3.52114 2.2649 10.17263 9.325367 -1.103975 -0.925415
C 1.21228 0.87995 10.123 -9.326834 1.105621 0.191791
C 1.17363 2.22333 13.00309 -3.113106 9.220776 0.761758
C 1.03514 0.96678 13.03608 3.114573 -9.222422 -0.028135
4
energy=-34.08666424 config_type=nep2xyz pbc="T T T" virial="-0.19009583119580575 1.4042631969580543 0.3750451836672298 1.4042631969580543 18.899531388570022 -1.8601557071942056 0.3750451836672298 -1.8601557071942056 -0.08463998017889683" Lattice="2.47599759 0.0 0.0 1.20183841 2.098563701 0.0 0.433515891 0.351060137 49.933764061" Properties=species:S:1:pos:R:3:force:R:3
C 1.26536 2.107 10.15347 2.026102 2.17915 -2.729089
C 1.33462 0.74316 9.99103 -2.015112 -2.170672 2.597416
C 2.67215 2.05987 13.27858 -0.751671 20.904122 0.591412
C 2.64234 0.91223 13.3832 0.740682 -20.912601 -0.459739
4
energy=-35.61464284 config_type=nep2xyz pbc="T T T" virial="11.243066712302943 -1.2115237819256934 0.4062670584526653 -1.2115237819256934 0.24868537249033973 -0.46617334125874277 0.4062670584526653 -0.46617334125874277 -0.07429073389038995" Lattice="2.420624467 0.0 0.0 1.187135658 2.149912719 0.0 -0.975884169 -0.946240097 49.94347167" Properties=species:S:1:pos:R:3:force:R:3
C 2.19593 -0.13844 10.00288 -0.394946 -5.107737 -0.380824
C 0.9763 0.47867 9.97802 0.395021 5.107258 0.383655
C 0.79268 0.4663 14.8082 8.815458 -7.184359 -0.590382
C 2.11273 1.05006 14.76099 -8.815532 7.184838 0.587551
4
energy=-35.93624683 config_type=nep2xyz pbc="T T T" virial="7.62887930767852 0.683508632806671 -0.11880623837381475 0.683508632806671 1.4935369373706573 0.20634079776460557 -0.11880623837381475 0.20634079776460557 2.3963491316175944" Lattice="2.414870232 0.0 0.0 1.204765356 2.138527395 0.0 -0.338380586 -0.206414191 50.063546374" Properties=species:S:1:pos:R:3:force:R:3
C -0.02956 0.00829 9.99157 0.732403 -6.456082 -0.187204
C 1.18735 0.58661 10.0088 -0.716769 6.449784 -0.659836
C 1.16686 2.07175 12.88741 -2.74758 3.244744 0.061773
C 1.11356 0.71086 12.8642 2.731947 -3.238445 0.785267
4
energy=-35.32598751 config_type=nep2xyz pbc="T T T" virial="10.611705329493573 0.9519004679391456 0.3929414090848806 0.9519004679391456 1.9390706671320064 0.3038599720697279 0.3929414090848806 0.3038599720697279 -0.161627848056191" Lattice="2.444743934 0.0 0.0 1.231442504 2.118688972 0.0 0.299627899 -0.880902665 49.269198505" Properties=species:S:1:pos:R:3:force:R:3
C 0.08952 -0.15924 9.81627 -4.832362 -7.711213 1.198234
C 1.25359 0.37061 9.90886 4.829732 7.711691 -1.20506
C 1.30306 0.5233 13.96514 -0.937852 -7.092112 -0.824098
C 2.51491 1.07459 13.90742 0.940482 7.091634 0.830924
4
energy=-35.3440636 config_type=nep2xyz pbc="T T T" virial="2.7917840617187117 2.057062732611633 0.4037897527370872 2.057062732611633 -0.7150260564892479 0.4819625529304026 0.4037897527370872 0.4819625529304026 7.069696267304799" Lattice="2.46313825 0.0 0.0 1.215602444 2.135524929 0.0 0.410320411 -0.337098683 50.761560806" Properties=species:S:1:pos:R:3:force:R:3
C 1.32053 2.04662 10.17533 -3.105986 -4.043117 -1.630232
C 1.28566 0.54504 10.18638 3.125532 3.862149 -1.602155
C 1.37588 -0.0774 12.39675 -2.894842 -0.111565 3.692724
C 2.54709 0.63906 12.53682 2.875295 0.292534 -0.460338
4
energy=-36.67873172 config_type=nep2xyz pbc="T T T" virial="-3.1590128288780557 1.857482709729149 0.05912870588072442 1.857482709729149 -1.9318757708907452 0.03506954408604479 0.05912870588072442 0.03506954408604479 0.31634136069647806" Lattice="2.494225625 0.0 0.0 1.20771794 2.162475813 0.0 0.152299304 0.050631761 50.123948742" Properties=species:S:1:pos:R:3:force:R:3
C 1.28136 2.12592 9.97227 -2.577786 1.617137 0.118845
C 1.25325 0.72092 9.98296 2.574864 -1.61728 -0.218743
C 1.28792 0.7286 13.38673 1.348471 2.283531 -0.336352
C 2.55521 1.49429 13.36391 -1.345549 -2.283388 0.43625
4
energy=-36.25309124 config_type=nep2xyz pbc="T T T" virial="-1.117361723688877 0.07492623215234988 -0.11202333714195152 0.07492623215234988 -2.4816902832091747 -0.7064886240276504 -0.11202333714195152 -0.7064886240276504 -0.6106484499752154" Lattice="2.479653993 0.0 0.0 1.259338767 2.168792274 0.0 -0.669377018 0.810381405 50.954414497" Properties=species:S:1:pos:R:3:force:R:3
C 2.31708 0.20475 10.2636 -1.906134 -2.60592 -2.908123
C 1.04644 0.86951 10.08663 1.908936 2.606026 2.905663
C 1.03311 0.24442 14.32189 -3.005563 3.293186 1.195364
C 2.20599 1.03731 14.39624 3.002761 -3.293292 -1.192904
4
energy=-34.57254742 config_type=nep2xyz pbc="T T T" virial="17.413666787343875 2.275395488555355 0.5264782107332148 2.275395488555355 5.248016749274259 0.5797187903197899 0.5264782107332148 0.5797187903197899 -0.06492377273419224" Lattice="2.414599922 0.0 0.0 1.248808285 2.097742617 0.0 -0.939182881 0.22445045 50.839338887" Properties=species:S:1:pos:R:3:force:R:3
C 2.30897 0.20895 10.14346 -8.883472 -8.870088 0.242847
C 1.00852 0.71311 10.16803 8.890559 8.868799 -0.244905
C 0.95288 0.81452 16.66836 -6.381841 -7.494278 0.644277
C 2.0911 1.37207 16.71657 6.374753 7.495567 -0.642219
4
energy=-35.78710988 config_type=nep2xyz pbc="T T T" virial="-0.23571652632447504 -2.046976602640553 0.21516105504687935 -2.046976602640553 6.322486722054654 0.08977793320899108 0.21516105504687935 0.08977793320899108 -0.051531492920163235" Lattice="2.480898472 0.0 0.0 1.242744497 2.127489331 0.0 -0.33398352 -0.101579449 49.829639664" Properties=species:S:1:pos:R:3:force:R:3
C 3.59928 2.06902 9.93432 1.006873 6.14679 0.070746
C 1.14191 0.74997 9.93894 -1.00497 -6.146429 -0.068389
C 1.00924 0.56932 14.98533 6.656674 3.59591 -0.438859
C 2.41863 1.36897 14.95241 -6.658577 -3.596272 0.436502
4
energy=-34.8058263 config_type=nep2xyz pbc="T T T" virial="6.177556327131803 2.4822631907344452 0.7484526898324869 2.4822631907344452 11.396937205088408 1.391626871144389 0.7484526898324869 1.391626871144389 -0.20808953946379852" Lattice="2.444130523 0.0 0.0 1.222773211 2.106629577 0.0 0.661398796 0.51831696 49.922312846" Properties=species:S:1:pos:R:3:force:R:3
C 1.39773 2.17595 9.98633 -1.164013 13.499831 -0.601642
C 1.3543 0.95848 9.93259 1.166384 -13.501239 0.60109
C 1.57494 0.19404 16.43184 -7.804257 -6.401176 1.428558
C 2.69239 0.78149 16.53589 7.801887 6.402584 -1.428006
4
energy=-35.44504963 config_type=nep2xyz pbc="T T T" virial="3.9061063289828466 -2.099554906477849 -0.8003657324235445 -2.099554906477849 3.5988072779414946 -0.38602847762599685 -0.8003657324235445 -0.38602847762599685 -0.3659661847689702" Lattice="2.434160774 0.0 0.0 1.257690173 2.154172293 0.0 0.770387558 0.327431463 50.749326069" Properties=species:S:1:pos:R:3:force:R:3
C 2.52178 0.12622 10.0689 6.592708 -0.422728 2.256961
C 1.44187 0.86406 10.22021 -6.593746 0.421175 -2.267779
C 1.54897 0.72624 14.08911 -3.633878 8.11839 0.770703
C 2.67245 1.59327 14.14439 3.634916 -8.116837 -0.759885
4
energy=-35.1000261 config_type=nep2xyz pbc="T T T" virial="5.257912719395518 4.4779756805815545 0.21477290218075926 4.4779756805815545 4.599830138189014 -0.017444708066192752 0.21477290218075926 -0.017444708066192752 6.663995836594441" Lattice="2.43195719 0.0 0.0 1.189908586 2.12446089 0.0 -0.906437976 0.372447732 49.178666096" Properties=species:S:1:pos:R:3:force:R:3
C 1.11335 2.15269 9.8353 -6.978385 1.921503 -2.178107
C 0.99226 0.79335 9.79962 6.831657 -1.872324 -0.723176
C 0.97403 0.88446 12.12167 -5.009364 -1.053337 1.630045
C 2.09792 1.58745 12.14619 5.156092 1.004159 1.271237
4
energy=-33.54512588 config_type=nep2xyz pbc="T T T" virial="9.282453255005075 2.3093088740605485 1.0208165071563677 2.3093088740605485 2.8075831799201882 0.737464540890428 1.0208165071563677 0.737464540890428 12.894246063108351" Lattice="2.431743431 0.0 0.0 1.199495411 2.116894668 0.0 -0.755575713 -0.153412596 49.649015315" Properties=species:S:1:pos:R:3:force:R:3
C 2.30389 0.07973 9.99464 1.429636 -6.3375 -4.687824
C 1.0995 0.65527 9.95761 -1.494272 6.092631 -1.838209
C 1.05206 0.69281 11.92141 -7.004019 -3.84022 4.176369
C 2.16262 1.3422 12.04093 7.068655 4.085089 2.349664
4
energy=-36.03859235 config_type=nep2xyz pbc="T T T" virial="4.291996312690866 -0.7790154027223877 0.3921236076013542 -0.7790154027223877 1.945042287908668 -0.15762003278223732 0.3921236076013542 -0.15762003278223732 -0.3225836218475699" Lattice="2.422977004 0.0 0.0 1.191014276 2.150036535 0.0 -0.760016372 0.198631731 50.424386545" Properties=species:S:1:pos:R:3:force:R:3
C 3.33737 2.12425 10.09911 6.967585 2.559792 -0.475048
C 1.07895 0.76585 10.06604 -6.967355 -2.558479 0.475998
C 0.97495 0.65121 14.57233 -1.253061 1.90712 2.135073
C 2.15671 1.40864 14.7004 1.252831 -1.908433 -2.136023
4
energy=-36.35904691 config_type=nep2xyz pbc="T T T" virial="-4.139124834248751 -1.2846514982187058 -0.019029154784753626 -1.2846514982187058 0.19551271807916495 -0.1448795478942681 -0.019029154784753626 -0.1448795478942681 -0.03248505658975654" Lattice="2.505230313 0.0 0.0 1.291645948 2.160692892 0.0 -0.403876672 -0.447610432 49.389198579" Properties=species:S:1:pos:R:3:force:R:3
C 1.2237 2.00926 9.90134 -2.057955 2.272246 -0.012649
C 1.14715 0.61412 9.90045 2.05789 -2.270785 0.014863
C 3.60101 1.94488 16.89576 0.755436 6.820694 0.323074
C 1.09042 0.6262 16.91716 -0.75537 -6.822155 -0.325288
4
energy=-35.82077341 config_type=nep2xyz pbc="T T T" virial="-2.282752369782819 -0.2851934907163511 -0.3652096062815046 -0.2851934907163511 0.5975200617252445 -1.0762435565403847 -0.3652096062815046 -1.0762435565403847 -0.3320890493073336" Lattice="2.51063143 0.0 0.0 1.236157287 2.152170745 0.0 -0.154687269 0.781579554 49.057561524" Properties=species:S:1:pos:R:3:force:R:3
C 3.65547 2.25334 9.75926 3.256646 6.680532 1.996227
C 1.26074 0.94874 9.89827 -3.258641 -6.682464 -1.993364
C 2.41838 2.32881 14.83969 2.562251 -4.298097 -0.546951
C 2.47701 0.79502 14.80541 -2.560257 4.300029 0.544087
4
energy=-35.97493722 config_type=nep2xyz pbc="T T T" virial="4.52843203634987 -0.9073148079621177 0.32376106986458875 -0.9073148079621177 0.9226359775574706 -0.3702547172126942 0.32376106986458875 -0.3702547172126942 0.08125653392917512" Lattice="2.41254774 0.0 0.0 1.223509284 2.168404163 0.0 0.021740231 -0.173199352 50.579974397" Properties=species:S:1:pos:R:3:force:R:3
C 1.25903 2.10732 10.12928 -4.05875 5.262727 1.102605
C 1.14978 0.77024 10.20373 4.059052 -5.267401 -1.154933
C 1.16035 0.64352 13.74695 4.912551 2.63341 -0.056148
C 2.47226 1.43417 13.74183 -4.912854 -2.628736 0.108475
4
energy=-36.63362395 config_type=nep2xyz pbc="T T T" virial="-2.56329745523718 -0.37348625752680736 0.1130870145666121 -0.37348625752680736 2.2644030549943364 0.3745369164317029 0.1130870145666121 0.3745369164317029 -0.3970637000144781" Lattice="2.49155846 0.0 0.0 1.253134219 2.123919682 0.0 -0.853771007 -0.543287067 49.703044408" Properties=species:S:1:pos:R:3:force:R:3
C 2.31479 -0.10395 9.9264 -0.200593 1.452301 0.523478
C 1.06677 0.62626 9.95755 0.198919 -1.452241 -0.522997
C 3.40745 1.90909 16.35463 0.716518 2.863095 -2.420788
C 0.9276 0.54267 16.20789 -0.714844 -2.863155 2.420307
4
energy=-35.12007759 config_type=nep2xyz pbc="T T T" virial="4.444144190913431 1.5144288597603237 0.14966212362994352 1.5144288597603237 6.223472790026034 -2.5013376555003553 0.14966212362994352 -2.5013376555003553 -0.6650512301834293" Lattice="2.451629237 0.0 0.0 1.189187753 2.126331761 0.0 0.41923829 -0.429295377 49.79134023" Properties=species:S:1:pos:R:3:force:R:3
C 3.65574 1.9209 9.81684 -0.60298 10.614928 1.721601
C 1.21176 0.66675 9.94539 0.6042 -10.617029 -1.720836
C 1.31219 -0.04446 16.74805 0.42452 -6.712551 -2.450725
C 2.53802 0.50423 16.57858 -0.42574 6.714653 2.44996
4
energy=-35.19995304 config_type=nep2xyz pbc="T T T" virial="2.7811490333308644 2.9258371963611403 0.7058729890370087 2.9258371963611403 3.7287644332504253 0.24959232560291383 0.7058729890370087 0.24959232560291383 -0.07184628204506618" Lattice="2.498766991 0.0 0.0 1.232314702 2.135950374 0.0 -0.511227215 0.810475889 49.977751509" Properties=species:S:1:pos:R:3:force:R:3
C -0.07283 0.18245 10.04274 -11.475992 -4.231468 0.466262
C 0.94471 0.87729 10.08654 11.478367 4.230352 -0.465954
C 3.47478 2.40629 19.26013 5.080743 1.616977 -0.615852
C 1.10135 1.02287 19.2205 -5.083117 -1.615862 0.615544
4
energy=-36.57045578 config_type=nep2xyz pbc="T T T" virial="4.461815990264719 -0.40967957321659204 -0.13794180878278314 -0.40967957321659204 5.357444785994336 -0.14662463326627492 -0.13794180878278314 -0.14662463326627492 -0.5408717990031988" Lattice="2.433342115 0.0 0.0 1.223668863 2.091795662 0.0 -0.011603422 0.568921735 50.249289201" Properties=species:S:1:pos:R:3:force:R:3
C 1.21345 2.18976 10.01477 1.079759 -0.131132 -0.105553
C 1.22561 0.7916 10.00832 -1.08032 0.132681 0.106572
C 2.48263 2.27589 16.87328 -0.830598 -0.83747 -2.929208
C 2.46317 0.86552 16.69857 0.831159 0.835922 2.928189
4
energy=-36.09289114 config_type=nep2xyz pbc="T T T" virial="2.577866671585338 2.8079513102768496 -0.049644811583586065 2.8079513102768496 4.771898695459455 0.04019837888237823 -0.049644811583586065 0.04019837888237823 -0.03805956393116136" Lattice="2.446025508 0.0 0.0 1.193972113 2.135327835 0.0 -0.635932002 -0.042867959 49.703174463" Properties=species:S:1:pos:R:3:force:R:3
C 1.12048 2.02476 10.01117 -1.778675 8.826325 -0.080013
C 1.09341 0.74175 10.00542 1.779172 -8.828422 0.082331
C 1.13508 -0.0035 15.10848 -4.646185 -1.329929 -0.144524
C 2.2718 0.69494 15.09951 4.645688 1.332026 0.142206
4
energy=-36.25222254 config_type=nep2xyz pbc="T T T" virial="4.297716114591705 -0.3352790232726431 -0.4536522794848178 -0.3352790232726431 -1.0595775445742592 -0.412309363085989 -0.4536522794848178 -0.412309363085989 -0.28160334411748467" Lattice="2.412601762 0.0 0.0 1.1819124 2.171617712 0.0 0.681119892 -0.86350324 50.806852486" Properties=species:S:1:pos:R:3:force:R:3
C 3.69164 1.94764 10.0877 5.243802 3.257585 1.321379
C 1.41288 0.58133 10.17382 -5.245569 -3.254765 -1.321832
C 2.65313 -0.30399 18.75772 0.021684 1.466709 1.529236
C 1.44149 0.45518 18.84867 -0.019917 -1.469529 -1.528782
4
energy=-36.63833988 config_type=nep2xyz pbc="T T T" virial="-1.2899693911082537 1.5679470323537283 0.06275096220881547 1.5679470323537283 5.193422575426462 0.03367348056496702 0.06275096220881547 0.03367348056496702 -0.029503037099507568" Lattice="2.49754284 0.0 0.0 1.214025311 2.091008943 0.0 -0.276297081 0.130424169 49.266514987" Properties=species:S:1:pos:R:3:force:R:3
C 3.56488 2.1088 9.84949 2.911215 1.793013 0.008543
C 1.15231 0.73954 9.85007 -2.910944 -1.794724 -0.008502
C 2.48865 2.12752 14.28116 -3.168094 -1.712032 0.338573
C 2.46063 0.69907 14.30181 3.167824 1.713743 -0.338614
4
energy=-36.58929501 config_type=nep2xyz pbc="T T T" virial="-1.289518131038614 -0.2771224021195034 -0.19730601572109638 -0.2771224021195034 0.4341045908489466 -0.0038133788030258087 -0.19730601572109638 -0.0038133788030258087 -0.0528140715679022" Lattice="2.48960977 0.0 0.0 1.262172525 2.137898952 0.0 -0.020792676 0.011202937 49.160353766" Properties=species:S:1:pos:R:3:force:R:3
C 2.45051 0.00509 9.82098 2.629596 0.530899 -0.068696
C 1.26305 0.72993 9.81681 -2.62999 -0.527848 0.069067
C 1.37755 2.11014 14.40181 -4.954808 -0.17228 -0.668952
C 1.2654 0.6908 14.35971 4.955202 0.169229 0.668581
4
energy=-36.0846867 config_type=nep2xyz pbc="T T T" virial="5.755769353103113 2.788968804199486 -0.2746331073777414 2.788968804199486 0.3679884454337511 0.12063071389385184 -0.2746331073777414 0.12063071389385184 0.45375028709286047" Lattice="2.445041784 0.0 0.0 1.182532175 2.140015773 0.0 -0.922288271 -0.530095826 50.656623218" Properties=species:S:1:pos:R:3:force:R:3
C 2.28578 0.03784 10.101 -0.585016 -6.877582 0.108656
C 1.04918 0.59788 10.11477 0.573995 6.88372 -0.299534
C 2.14595 1.93571 13.38019 -3.491273 0.464243 -1.388766
C 2.11056 0.52685 13.28835 3.502295 -0.470381 1.579645
4
energy=-35.83013388 config_type=nep2xyz pbc="T T T" virial="6.378136485831554 1.4371816890082107 -1.2008185882731284 1.4371816890082107 3.949720860900009 -0.24223322185045024 -1.2008185882731284 -0.24223322185045024 -0.25519746710117414" Lattice="2.437293576 0.0 0.0 1.213628209 2.122848681 0.0 -0.936801969 0.364810264 49.287825439" Properties=species:S:1:pos:R:3:force:R:3
C -0.11908 0.09203 10.0143 -9.124922 -2.057274 -1.723083
C 0.9371 0.7983 9.88873 9.125203 2.058634 1.725835
C 0.82469 0.78606 14.78524 4.931823 -1.516971 0.174539
C 2.1242 1.47643 14.79638 -4.932104 1.515611 -0.177291
4
energy=-35.96994364 config_type=nep2xyz pbc="T T T" virial="2.414052520533462 -2.3953938206000274 0.29565986170751213 -2.3953938206000274 1.9312225234954536 -0.33561541507537274 0.29565986170751213 -0.33561541507537274 -0.16846518098376934" Lattice="2.471238986 0.0 0.0 1.277504802 2.137063047 0.0 0.538523456 -0.230648286 50.115659971" Properties=species:S:1:pos:R:3:force:R:3
C 2.53029 0.02379 9.94987 -3.831234 4.187408 1.429908
C 1.21401 0.81722 10.04198 3.834302 -4.187295 -1.430901
C 1.35413 0.7038 15.62426 6.24793 -5.25547 0.139448
C 2.69098 1.31985 15.63377 -6.250998 5.255356 -0.138455
4
energy=-35.42525482 config_type=nep2xyz pbc="T T T" virial="6.53907058440144 4.3209818701173495 -0.7340756377242224 4.3209818701173495 8.553010538531442 0.6311234781226687 -0.7340756377242224 0.6311234781226687 -0.3280245827917379" Lattice="2.412742369 0.0 0.0 1.184722731 2.117231082 0.0 -0.754618781 0.992689463 50.982703888" Properties=species:S:1:pos:R:3:force:R:3
C 1.10693 2.22553 10.2656 -7.762303 3.771589 -0.589635
C 0.93739 0.91933 10.21501 7.761509 -3.772291 0.590011
C 2.13933 2.47692 20.37682 -2.617791 3.366351 -2.094112
C 2.10355 1.12685 20.24644 2.618585 -3.365649 2.093737
4
energy=-36.01964873 config_type=nep2xyz pbc="T T T" virial="0.19329065594582467 0.12480861693837528 0.00015463252475665976 0.12480861693837528 3.2399833562483527 -0.3458440455598324 0.00015463252475665976 -0.3458440455598324 -0.09432079773662472" Lattice="2.494357895 0.0 0.0 1.257588365 2.120815491 0.0 0.192052363 -0.553202794 50.905154023" Properties=species:S:1:pos:R:3:force:R:3
C 1.34926 1.97192 10.22414 -2.925351 5.53173 -0.213359
C 1.26815 0.65058 10.21008 2.925155 -5.53015 0.213225
C 2.55461 -0.06654 14.73853 0.598075 -6.240709 -1.025797
C 1.31789 0.49349 14.67075 -0.597878 6.23913 1.025931
4
energy=-36.60919199 config_type=nep2xyz pbc="T T T" virial="5.119576350790179 0.08253479096230953 -0.04966665149532659 0.08253479096230953 0.4393384403933902 -0.02543449283671637 -0.04966665149532659 -0.02543449283671637 -0.07339282107492327" Lattice="2.420323027 0.0 0.0 1.176901655 2.143963949 0.0 -0.900776572 -0.972892519 50.234297525" Properties=species:S:1:pos:R:3:force:R:3
C -0.12721 -0.1811 10.07549 0.274242 -0.674894 -0.773481
C 1.08063 0.52653 10.02921 -0.273798 0.674862 0.775393
C 3.2756 1.8368 15.28679 5.335233 -0.486246 0.182344
C 0.97462 0.41412 15.29832 -5.335677 0.486277 -0.184257
4
energy=-36.00331819 config_type=nep2xyz pbc="T T T" virial="-1.0707627003017612 -0.3434024247659473 -0.6870611212646779 -0.3434024247659473 2.19735020925547 0.3448229508609121 -0.6870611212646779 0.3448229508609121 -0.02401147334714821" Lattice="2.489267775 0.0 0.0 1.231145614 2.143033338 0.0 0.205456932 -0.205782411 50.972226489" Properties=species:S:1:pos:R:3:force:R:3
C 0.04926 -0.04039 10.15448 6.675618 0.911106 0.917701
C 1.4371 0.71384 10.21843 -6.676397 -0.918227 -0.973469
C 1.35935 0.58371 13.80215 -2.704109 4.194896 -1.470196
C 2.53341 1.37714 13.70701 2.704888 -4.187776 1.525964
4
energy=-35.11429155 config_type=nep2xyz pbc="T T T" virial="7.125733908514734 0.1428094975410331 -2.0629018011800326 0.1428094975410331 3.0376817610918927 -1.5975190497808698 -2.0629018011800326 -1.5975190497808698 -0.7501043040962095" Lattice="2.459812186 0.0 0.0 1.265582508 2.110374274 0.0 -0.833559409 1.005978055 49.110734592" Properties=species:S:1:pos:R:3:force:R:3