120
energy=-1055.198193 config_type=nep2xyz pbc="T T T" virial="66.99978 -4.14231 2.1656 -4.14231 63.55467 -4.31036 2.1656 -4.31036 97.0721" Lattice="15.812629 0.0 0.0 0.0 9.177746 0.0 0.0 0.0 34.51595" Properties=species:S:1:pos:R:3:force:R:3
C 12.78669 0.2869 11.45534 -0.517353 -0.383704 -0.412008
C 13.48673 0.72289 12.61481 0.918783 0.648123 0.581147
C 12.84281 1.52012 13.69481 -0.095713 -0.746146 -0.009749
C 11.24473 1.52878 13.69765 -0.526434 -1.245526 -0.611209
C 10.65055 0.70468 12.61345 -0.826981 0.640893 -0.204169
C 11.41381 0.23123 11.49797 0.032798 1.133438 -0.310587
C 10.7123 8.3355 10.92157 -0.239393 -0.945056 -1.399678
C 9.54917 8.10068 11.68759 -0.442644 0.358925 -0.70383
C 9.51444 9.09089 12.70122 -0.014154 0.734098 0.782997
C 11.22484 3.07196 13.65337 0.401448 0.800305 0.49396
C 12.87455 3.06608 13.67823 -0.870893 0.863578 -0.119812
C 13.23496 3.79985 12.41629 1.246073 0.083934 0.131361
C 12.07041 4.09928 11.68146 0.141453 0.044711 -1.094387
C 10.89656 3.81057 12.3963 -1.094719 -0.541389 0.154941
C 9.77685 4.60138 12.2413 -0.35075 -0.194999 -0.362934
C 8.75347 4.93289 13.31522 1.455952 0.48564 0.50744
C 9.4633 4.67033 14.60668 0.729428 -0.576608 -0.565464
C 10.59554 3.85907 14.74388 -1.377026 -0.570195 -0.260816
C 11.30119 4.28411 15.90272 0.496474 0.270199 0.509958
C 12.68286 4.30814 15.90205 -0.74794 -0.269716 0.592112
C 13.42833 3.86546 14.77655 1.528024 -0.259622 0.178923
C 14.53538 4.69983 14.68046 0.099527 -0.528207 -0.090549
C 14.51586 5.68593 15.71952 -0.254656 -0.431923 0.2691
C 14.91962 6.98645 15.46474 0.739953 -0.968092 2.133913
C 14.27512 8.09737 16.0345 -1.398517 0.392215 1.491642
C 14.33084 0.05012 15.1717 0.066019 -0.028073 -0.330424
C 13.13142 7.83306 16.82535 1.241344 0.515871 -0.092907
C 12.68393 6.50086 17.05897 -0.206349 -0.159695 0.500838
C 13.33996 5.43396 16.47923 1.04312 0.278553 0.833193
C 11.25315 6.51955 17.04685 -0.019049 -1.585324 0.059521
C 10.82991 7.83924 16.78732 -0.371906 0.853783 0.025159
C 12.00283 8.65494 16.63694 -0.647875 0.052647 0.662178
C 13.16836 0.79832 14.95745 1.927879 -0.046428 0.498791
C 12.01466 0.47968 15.68178 -1.296041 0.242155 0.481548
C 10.81853 0.77288 14.93075 -0.126814 0.244873 0.706242
C 9.66844 9.16976 15.08054 1.098911 1.596487 0.065201
C 9.72815 8.07983 15.9602 0.32797 -0.31801 1.533078
C 8.71604 8.86409 13.95967 1.562194 -1.356741 -0.659256
C 8.53752 7.3458 14.16772 -0.62134 -0.01948 -1.623215
C 9.0315 6.97275 15.41617 -0.11297 -0.984759 0.80105
C 8.57505 6.44247 13.13296 -1.053805 -0.102244 1.637344
C 9.07222 6.82603 11.9033 0.769519 -0.466178 -1.86209
C 9.49902 5.67206 15.60315 -0.434443 0.115303 1.461446
C 10.61174 5.41645 16.45071 -0.524631 0.916532 0.80287
C 9.82645 5.70266 11.36353 -0.356508 0.743176 -0.835192
C 10.9403 5.95405 10.5731 -0.400211 -0.929993 -0.219206
C 11.38797 7.27357 10.32942 -0.750318 0.745702 -0.448321
C 12.79732 7.27149 10.31193 0.658808 -0.034402 -0.266403
C 13.46603 8.31966 10.91398 0.428765 0.748007 -0.778465
C 14.58539 8.10227 11.74473 0.40165 -0.064756 -0.308851
C 12.08181 5.11811 10.73926 -0.075056 -0.113673 -0.808187
C 13.23377 5.92838 10.56416 0.090815 0.043767 -0.448476
C 14.32173 5.70668 11.38865 0.251423 0.421741 -0.481832
C 14.33977 4.6421 12.28948 -0.219709 -1.733814 0.325471
C 15.29481 4.97013 13.43177 -0.921996 -0.349291 -0.149154
C 15.46574 6.43814 13.25491 0.882376 0.578569 0.648494
C 15.48594 7.35113 14.26945 0.88066 0.337825 -1.84611
C 15.31915 8.847 14.04089 -0.658379 0.096008 0.556388
C 14.57004 9.06244 12.80201 -0.436864 0.92637 -0.853253
C 14.99004 6.8139 12.00452 0.486833 0.245738 -1.767781
C 4.78286 8.87505 11.45681 -1.678655 0.323879 -1.471784
C 5.49404 8.49253 12.59068 2.364416 -0.772373 0.727445
C 4.94464 7.66325 13.68025 -0.148928 0.81305 -0.204292
C 3.32983 7.68926 13.67779 0.21488 -0.90072 0.130394
C 2.66756 8.41437 12.57169 -0.541081 -0.508726 0.473359
C 3.37983 8.85519 11.43692 1.924806 0.129677 -1.118118
C 2.72375 0.81274 10.85994 -0.527203 0.597828 -0.902355
C 1.59539 1.07212 11.66507 -0.554684 0.605522 -0.330951
C 1.60183 0.09299 12.71635 -0.636722 0.086332 -0.116941
C 3.36303 6.08431 13.70198 -0.294446 -0.201998 -0.764812
C 4.96116 6.09113 13.63416 -0.164225 -0.072384 0.684835
C 5.30022 5.37524 12.34945 2.088487 0.295245 0.554493
C 4.14208 5.10935 11.64543 -1.228281 -1.008179 -1.55625
C 2.97896 5.36913 12.42539 -0.954907 0.447233 0.020701
C 1.83746 4.60206 12.27933 0.379359 0.397646 -0.965885
C 0.85292 4.28208 13.36315 1.055871 -1.240293 1.383369
C 1.61707 4.4616 14.65568 0.650708 1.981756 -0.865361
C 2.74891 5.29597 14.79651 -1.494095 0.347331 -0.823497
C 3.48248 4.86848 15.91587 0.356952 -0.334738 1.431824
C 4.8779 4.86636 15.88546 -1.503962 0.689058 0.608692
C 5.57847 5.31523 14.74179 1.029624 0.855042 -1.323136
C 6.67279 4.49118 14.5453 -0.326244 0.642056 0.040708
C 6.65853 3.51426 15.55646 0.613233 -0.734947 1.382661
C 7.0422 2.19971 15.33363 0.669847 2.031091 1.934852
C 6.37964 1.13076 15.94017 -0.8842 -0.239809 1.702941
C 6.43548 0.03246 15.06481 -0.460718 -1.027518 0.517128
C 5.27589 1.38227 16.79826 1.975032 -0.43707 -0.613754
C 4.87433 2.72773 17.0378 -0.007108 -0.144278 0.257053
C 5.57987 3.76705 16.42841 -0.372055 -0.568145 1.150574
C 3.43088 2.70337 17.0476 0.594479 0.558147 0.901427
C 3.02394 1.3668 16.79804 -1.717123 -0.60009 -0.012979
C 4.14885 0.56058 16.63029 0.369512 -1.775055 -0.140491
C 5.32796 8.39442 14.96126 0.688349 -0.815961 -0.882632
C 4.15826 8.6723 15.67789 -0.37956 1.201205 1.981849
C 2.98303 8.39162 14.93745 -0.156918 -0.176504 0.198904
C 1.896 0.03072 15.08775 -1.184021 -0.898644 -0.507928
C 1.90723 1.08166 15.98721 0.375648 1.646918 1.796917
C 0.8881 0.38623 13.97652 0.945304 -0.617934 0.293978
C 0.73538 1.86874 14.17301 -1.060992 -0.082441 -0.639826
C 1.18466 2.20057 15.46073 0.145155 1.58037 0.759424
C 0.6739 2.76596 13.14515 -0.505587 0.347647 1.418205
C 1.16717 2.4028 11.88724 -0.33339 -1.987335 -0.558446
C 1.61516 3.5308 15.6962 -0.610603 -1.605869 1.339952
C 2.72928 3.78386 16.56661 0.246047 0.52348 -0.884154
C 1.87443 3.49374 11.3667 0.287994 0.724772 -1.04355
C 2.97168 3.24659 10.55259 -0.630591 0.063708 -0.423196
C 3.39809 1.89906 10.28221 -1.511091 -0.583666 -0.179316
C 4.79013 1.87887 10.26565 1.053757 -0.118915 -0.046964
C 5.46418 0.81644 10.85128 -0.336905 -0.160497 -0.980686
C 6.58259 1.08163 11.63569 1.700103 0.554723 -0.007925
C 4.11543 4.07123 10.68578 0.21469 0.287583 0.171189
C 5.22607 3.19734 10.57596 1.082981 1.172596 -1.11304
C 6.39007 3.46946 11.30302 -1.243782 0.141609 -1.476668
C 6.43194 4.57092 12.1655 -0.231009 1.425213 0.374717
C 7.41246 4.24607 13.27919 -1.371558 -0.392051 0.209336
C 7.57031 2.75196 13.08736 1.09494 -0.48887 1.751476
C 7.55715 1.84043 14.12037 0.964612 0.214226 -2.080086
C 7.37688 0.355 13.93648 -0.946232 0.82759 -0.353173
C 6.63191 0.1411 12.68333 -1.204125 -1.776818 0.201845
C 7.06779 2.37556 11.85788 0.197453 -1.445827 -1.514038
120
energy=-1054.220613 config_type=nep2xyz pbc="T T T" virial="45.24020000000001 -7.54899 -0.27029 -7.54899 57.77944 -11.97173 -0.27029 -11.97173 81.47889" Lattice="16.004988 0.0 0.0 0.0 9.242072 0.0 0.0 0.0 34.395117" Properties=species:S:1:pos:R:3:force:R:3
C 12.85592 0.18041 11.43774 -2.630993 1.81009 -0.862333
C 13.56599 0.71675 12.53904 1.165516 -0.742972 0.828696
C 12.90333 1.49417 13.62125 1.0308 -0.466536 0.705634
C 11.31963 1.51871 13.67023 0.34015 -0.272599 -1.199465
C 10.71736 0.7029 12.57066 -0.889405 0.369534 -0.599695
C 11.4351 0.23635 11.38441 1.740412 0.058751 0.565716
C 10.75527 8.34212 10.83441 0.06339 0.468688 -0.574387
C 9.58634 8.15417 11.64141 0.599565 -0.687657 -0.926759
C 9.60008 9.13387 12.70536 0.437565 1.8e-05 -1.629834
C 11.40217 3.12643 13.60726 -0.503847 -0.218812 0.030905
C 13.02997 3.10326 13.57961 -0.824862 0.130914 1.483949
C 13.37208 3.82097 12.33166 0.251542 -0.025162 -0.61697
C 12.15571 4.15548 11.63296 1.885725 -0.1541 -0.927234
C 11.0144 3.86117 12.37223 -1.553881 -0.089074 -0.623888
C 9.88378 4.66719 12.1905 -0.207066 -1.118272 -0.120194
C 8.86475 5.01408 13.26959 1.135868 -0.912655 0.623282
C 9.65487 4.81266 14.50412 1.219666 -2.840799 -0.135458
C 10.78369 3.9403 14.64565 -1.913433 0.724966 0.70901
C 11.49983 4.37643 15.80326 0.942932 -0.39107 0.29879
C 12.89865 4.3794 15.80537 -2.139767 0.371187 1.383002
C 13.61498 3.974 14.67225 1.992398 -1.038273 -0.530429
C 14.74897 4.81782 14.60435 -0.942353 -2.605241 -1.38939
C 14.67632 5.75142 15.64711 0.768793 0.695203 0.928017
C 15.08797 7.0511 15.44334 0.888935 -0.354734 0.901524
C 14.41807 8.15303 16.0471 -0.642918 0.209288 0.101669
C 14.37685 9.19267 15.06838 1.036935 1.091972 0.732046
C 13.31954 7.91927 16.88343 -0.445445 -0.058156 -0.735659
C 12.87134 6.56028 17.04316 -0.092343 0.128433 0.586554
C 13.5345 5.50997 16.43267 0.417693 -0.647086 0.570965
C 11.44494 6.58154 16.9997 -0.735257 -2.951053 0.002552
C 10.96861 7.87764 16.7509 -0.873088 0.33665 0.223671
C 12.10964 8.67287 16.61338 0.922243 1.101507 0.550064
C 13.24259 0.69673 14.88035 1.307605 1.1852 -0.169816
C 12.09067 0.40269 15.62476 0.433239 0.42429 1.172507
C 10.94165 0.74409 14.90895 -1.529234 0.559922 -0.411389
C 9.80239 9.20267 15.02978 -0.4505 0.467872 0.544748
C 9.83632 8.11073 15.93602 1.263808 0.783847 1.343378
C 8.80612 8.85954 13.8976 0.877069 0.507746 1.04171
C 8.62661 7.3764 14.11726 -0.074901 0.116692 0.633877
C 9.18321 7.00726 15.40449 -1.69416 -0.402641 -1.053661
C 8.6764 6.48107 13.11198 -0.862928 -0.316524 -0.246815
C 9.18686 6.83436 11.85878 -0.204503 1.413889 -1.450883
C 9.67173 5.73534 15.54294 0.430956 -0.240146 2.297561
C 10.80549 5.45684 16.39968 -0.807319 1.881359 0.628381
C 9.90395 5.73269 11.27412 0.290171 0.330944 -0.231819
C 11.05419 5.97074 10.52271 -0.872088 0.020345 -0.759416
C 11.48871 7.28961 10.24803 -1.426447 1.21773 -0.105111
C 12.90475 7.30959 10.22343 0.313455 0.683613 0.217516
C 13.56402 8.38091 10.83944 0.718566 -1.276592 -0.848993
C 14.69045 8.12483 11.67048 0.308872 0.44818 -0.238673
C 12.19867 5.17672 10.69408 -0.562134 -0.947061 -0.466917
C 13.33249 5.99007 10.52147 1.367511 -0.622175 -0.06303
C 14.44565 5.72887 11.34699 -0.443271 1.043176 -2.303117
C 14.49461 4.61602 12.16205 0.901775 -0.751592 1.785134
C 15.52443 5.00391 13.33286 -1.698224 -0.033448 0.213313
C 15.64181 6.4956 13.15421 0.805104 0.352449 0.985523
C 15.58251 7.41219 14.18079 1.027457 0.056032 -0.87347
C 15.42507 8.93309 13.99374 -0.716939 -1.581219 0.061285
C 14.65911 9.08712 12.74481 -0.169983 1.861976 -1.259053
C 15.15885 6.83684 11.88902 -0.101717 0.918168 -1.033074
C 4.81454 9.02685 11.36823 -0.176316 -1.087819 0.007412
C 5.54587 8.56127 12.494 1.213613 -0.29289 0.827435
C 4.93413 7.76254 13.59453 0.906235 0.596723 0.605781
C 3.37899 7.77325 13.64381 -0.465676 -0.380853 0.176909
C 2.76949 8.56176 12.58374 -2.580013 -0.059559 0.386729
C 3.43749 8.99626 11.41694 0.34323 0.179805 -0.87741
C 2.71962 0.85485 10.8463 -0.143155 -0.591441 0.199018
C 1.58721 1.07533 11.7066 0.24866 -0.274732 -1.109435
C 1.6021 0.09529 12.76956 0.985276 -0.423229 -1.407021
C 3.33682 6.16921 13.57846 0.333076 -0.557844 1.473129
C 4.99197 6.16755 13.54783 -0.812696 0.076243 0.437664
C 5.33426 5.39269 12.30327 1.062807 0.80852 0.694141
C 4.14543 5.08588 11.62804 0.239225 -1.006812 -2.432939
C 2.97823 5.41825 12.33241 -1.087712 0.19608 0.543666
C 1.87439 4.58575 12.23156 -0.436999 0.383068 -0.708497
C 0.87232 4.29686 13.31927 0.813156 -1.559179 1.354728
C 1.66919 4.47547 14.6139 -0.540607 2.284267 -1.964372
C 2.75076 5.35818 14.74441 -0.580806 0.732774 -1.673097
C 3.52918 4.91195 15.84204 0.873281 0.607526 0.795033
C 4.93567 4.97337 15.84648 -1.467938 0.210272 -0.58654
C 5.61219 5.39343 14.63008 1.417951 0.045354 0.884148
C 6.74396 4.57685 14.50117 -0.47969 -0.008891 0.238268
C 6.72501 3.57401 15.50254 -0.356244 0.911693 1.883282
C 7.12517 2.28286 15.31268 1.05285 -0.257562 -0.250476
C 6.39035 1.21126 15.87895 0.508636 -0.933683 0.509182
C 6.47582 0.06846 15.02126 -1.062467 -0.493847 0.095847
C 5.30262 1.44272 16.71756 1.793264 -0.620799 -0.366603
C 4.90715 2.78679 16.91539 0.617276 -0.096298 1.064866
C 5.62063 3.84901 16.37865 0.411214 -0.512058 0.248293
C 3.50126 2.7547 16.95899 0.031419 0.813146 1.158547
C 3.07144 1.42793 16.77582 -1.47504 -1.411097 -0.023538
C 4.1832 0.58315 16.60176 0.347812 0.277539 0.413576
C 5.30486 8.52929 14.88513 3.007602 -0.479543 -1.156418
C 4.16908 8.84139 15.61405 -0.100843 -0.081438 1.681862
C 3.00754 8.52419 14.91661 -1.481398 -0.672202 -0.348141
C 1.87111 0.06566 15.10942 0.086772 -1.817765 0.109085
C 1.94479 1.13114 16.00927 -0.744063 1.271203 0.720023
C 0.85175 0.35367 14.02882 0.387001 0.514691 -0.716407
C 0.70011 1.86685 14.17677 -0.904408 -0.59693 0.517012
C 1.1796 2.22873 15.46708 0.531427 1.636564 0.160583
C 0.61798 2.72254 13.12667 -0.027661 2.376041 1.995515
C 1.16377 2.373 11.91403 0.029578 -0.696312 -1.85968
C 1.66908 3.54958 15.63723 -0.490191 -1.600311 1.639951
C 2.82443 3.82209 16.4497 -0.924141 0.128105 -0.109938
C 1.89554 3.46998 11.35165 0.026706 0.083634 -0.711031
C 2.98476 3.22888 10.52093 0.059566 -0.206048 -0.153928
C 3.46465 1.88664 10.30278 -2.469897 0.630288 -0.666724
C 4.85513 1.91025 10.28581 0.780265 0.967094 -1.119989
C 5.53978 0.86342 10.80261 0.534559 -0.547048 -0.673667
C 6.69533 1.09556 11.58384 -0.019397 0.425285 -0.941032
C 4.13944 4.0329 10.66418 -0.444406 2.236982 0.673468
C 5.29454 3.269 10.51067 0.492048 -0.345849 -0.472861
C 6.42959 3.53907 11.29002 -1.122836 -0.694538 -2.096363
C 6.47384 4.6014 12.19136 0.283133 1.012155 -0.617807
C 7.50983 4.25306 13.27705 -1.357291 0.932853 -0.798607
C 7.65638 2.76846 13.01748 0.966148 -0.526081 1.713255
C 7.68017 1.85961 14.05479 -0.145668 0.94054 -0.408576
C 7.45482 0.38417 13.87092 -1.125101 -0.416239 0.680056
C 6.65138 0.15412 12.64203 0.467307 -1.174243 0.078167
C 7.11879 2.40767 11.75976 1.294859 -0.880289 0.520423
120
energy=-1047.137261 config_type=nep2xyz pbc="T T T" virial="45.70789 9.31727 -5.81396 9.31727 71.40971 -6.85435 -5.81396 -6.85435 72.28948" Lattice="16.061448 0.0 0.0 0.0 9.215174 0.0 0.0 0.0 33.33342" Properties=species:S:1:pos:R:3:force:R:3
C 12.64176 0.42279 11.10133 0.861298 -0.248815 -2.026133
C 13.66915 0.85055 12.05908 0.115474 0.389994 -0.501693
C 13.42685 1.6894 13.12685 -1.711999 -0.314547 1.90378
C 10.64109 1.73448 13.25481 1.304234 -1.503777 -0.885678
C 10.38072 0.86217 12.15178 -0.676154 1.254342 0.32952
C 11.21878 0.44611 11.04058 2.418275 1.805428 0.420188
C 10.58112 8.54961 10.49632 2.308352 -3.193029 -3.643401
C 9.56208 8.17974 11.31388 -3.193859 -2.491007 -1.316515
C 9.41233 9.09579 12.29144 -0.204244 2.695582 1.320696
C 11.19426 3.06887 13.06931 0.307221 1.336907 2.417525
C 12.77797 3.02704 13.06281 1.760428 2.421848 0.323344
C 13.21209 3.86444 11.82292 -0.59247 -0.77123 0.088431
C 11.99917 4.17293 11.17922 0.503608 1.071271 -1.897016
C 10.80273 3.79798 11.87733 -0.277977 1.698269 -1.970569
C 9.69892 4.66442 11.77166 -0.505769 -0.922944 -0.27126
C 8.68545 5.06119 12.85284 0.113762 0.05427 1.488996
C 9.50193 4.86519 14.09424 0.460127 -0.849653 -1.531456
C 10.65046 4.06843 14.15485 -2.251248 -1.431977 -0.441238
C 11.29353 4.46441 15.31778 3.69564 -0.55348 1.573831
C 12.69619 4.5009 15.24452 -0.684105 -0.337163 1.051473
C 13.37447 4.0385 14.08949 1.099459 -1.76088 0.638961
C 14.61452 4.70707 14.05687 -0.977175 -0.253996 -2.579607
C 14.59874 5.68557 15.04951 1.287894 1.61388 1.186318
C 15.09913 6.97089 14.83303 0.917904 -0.621398 1.07904
C 14.47374 8.10492 15.40427 -2.534952 0.252453 1.01763
C 14.44916 9.18126 14.51344 0.700774 0.265074 -0.723994
C 13.27481 7.92557 16.13261 0.886742 -0.373644 0.856209
C 12.81638 6.62874 16.50851 0.864321 -0.991387 -0.590722
C 13.47224 5.56801 15.85535 -1.648238 -1.134959 1.134691
C 11.3841 6.62716 16.54743 0.099896 -1.913843 -0.013334
C 10.97559 7.92132 16.22103 -0.321244 1.084281 0.492519
C 12.11153 8.68199 15.87685 0.975634 -0.096239 2.644812
C 13.35226 0.80879 14.30574 1.162039 0.568229 1.215616
C 12.11654 0.52014 15.0462 0.050873 2.819108 -2.770012
C 10.86493 0.86304 14.38856 -1.735634 0.510586 1.189159
C 9.74256 0.06418 14.64157 -0.31556 0.881144 -0.477399
C 9.83341 8.20438 15.50768 -0.449186 -0.425072 0.43173
C 8.662 8.99152 13.54183 1.707605 -2.095172 0.396921
C 8.49099 7.4922 13.68093 0.338794 -0.560729 2.016281
C 9.14279 7.11779 14.9511 -2.718783 0.912278 -1.599872
C 8.44344 6.57275 12.67444 0.666692 -0.921444 -0.812483
C 9.03125 6.86673 11.40092 -0.475158 1.495666 0.640565
C 9.63339 5.88787 15.05485 -0.347093 -2.89167 2.968945
C 10.66485 5.51711 16.01284 -0.654822 1.948539 -0.755857
C 9.77154 5.76398 10.91528 0.644946 0.925665 -1.541714
C 10.92424 6.07922 10.15803 -2.221111 -0.271333 -0.51027
C 11.25428 7.42649 9.81859 -0.448749 1.633464 1.507933
C 12.67069 7.43374 9.89627 -0.7415 2.07354 -1.450039
C 13.3031 8.53515 10.41939 1.291079 -0.654787 0.678555
C 14.54528 8.22032 11.14749 0.016932 -0.405584 -1.063879
C 12.07059 5.27643 10.28793 -1.887334 -0.898248 -0.389784
C 13.14551 6.13721 10.07948 1.909846 -1.646652 0.436985
C 14.27254 5.87502 10.85189 -0.04915 -0.882293 -0.924415
C 14.33306 4.68011 11.63708 0.612079 0.463938 0.395759
C 15.31692 5.05514 12.73736 0.114046 -2.521133 1.925158
C 15.62172 6.48528 12.59662 -0.817427 0.033158 -2.011681
C 15.65046 7.33503 13.60746 0.985539 2.77419 0.973849
C 15.47834 8.87544 13.39274 -1.233875 -0.5931 1.460983
C 14.72777 9.11149 12.14413 -1.03479 2.430096 0.544633
C 15.03967 6.94989 11.39409 -0.081349 -1.470147 -1.933335
C 4.67955 9.06014 10.98954 -0.455344 -0.857469 -0.250862
C 5.38357 8.53717 12.13094 1.991507 -0.28461 0.470516
C 4.83699 7.73721 13.30117 -0.868467 0.775672 -2.621001
C 3.20717 7.85464 13.21257 -0.799945 -0.865955 -0.047288
C 2.51711 8.59627 12.06472 0.162899 -0.647733 0.817417
C 3.29829 9.0592 10.95825 -0.20856 -0.871537 -0.700319
C 2.57603 0.87589 10.28582 -0.279153 1.261404 0.492256
C 1.41211 1.11683 11.12358 -0.730395 1.366646 -0.855551
C 1.35929 0.18447 12.15447 2.317884 -1.469918 2.406796
C 3.11047 6.17645 13.21707 1.383362 1.496898 0.57408
C 4.84722 6.15846 13.29384 -2.385753 1.349823 -1.290784
C 5.12371 5.51603 11.97818 1.492924 -0.745795 -0.023446
C 3.96067 5.23525 11.22768 -1.4696 -0.360414 0.167682
C 2.73341 5.4925 11.96168 0.407413 -0.370563 -1.102512
C 1.61445 4.65147 11.76862 2.518906 1.793761 -0.684276
C 0.70365 4.35688 12.84319 -1.240936 -0.68736 1.751366
C 1.39409 4.70382 14.14384 -0.591764 -2.064303 1.26442
C 2.52786 5.43551 14.31898 -0.084754 1.587543 -0.261979
C 3.26336 5.0183 15.4872 0.87519 -0.441913 0.636073
C 4.6642 4.96924 15.56422 -0.95537 1.619037 -1.841605
C 5.39552 5.40888 14.39266 2.489931 -1.305604 -0.087227
C 6.51855 4.52115 14.20494 -1.052954 3.023141 0.476546
C 6.56155 3.62145 15.2713 -1.211476 -0.63883 1.919703
C 6.98532 2.30689 15.13709 2.669987 1.304204 -2.655401
C 6.33146 1.19885 15.65063 -1.432963 -0.734764 0.534761
C 6.34163 0.13302 14.66631 -0.311091 -1.28141 1.134657
C 5.18016 1.50939 16.43589 1.897891 -2.303762 -1.081139
C 4.70021 2.81692 16.60873 0.506725 0.322103 1.498907
C 5.35187 3.86069 16.06455 2.502383 0.504753 0.366353
C 3.3149 2.82544 16.58496 -2.707106 -0.743411 -0.064475
C 2.90718 1.44822 16.29123 1.004105 1.989187 1.444376
C 4.10709 0.68486 16.13238 -2.314355 -1.629619 0.26636
C 5.23554 8.46121 14.51907 1.943227 1.426009 0.104206
C 4.09128 8.8376 15.18609 -2.080084 1.2227 2.126192
C 2.84693 8.59818 14.45396 0.51914 0.173445 1.211662
C 1.74825 0.20493 14.68564 -0.52186 -2.706708 -3.153306
C 1.79296 1.29427 15.52793 -0.291716 -1.012902 1.569457
C 0.72919 0.47695 13.52299 0.734342 -0.302799 -0.569218
C 0.47217 1.94679 13.79066 -0.039845 0.921509 -0.941403
C 0.95784 2.32772 15.11406 -0.281536 3.303783 -1.937943
C 0.49122 2.85079 12.74161 0.376168 -1.290889 -0.413391
C 0.97898 2.39882 11.42813 0.420636 1.930044 -0.315724
C 1.4256 3.69998 15.2307 -1.479236 -2.121596 0.176363
C 2.56734 3.89281 16.02397 0.580947 -0.192237 1.093393
C 1.7472 3.57004 10.89221 -2.108519 -1.499183 0.212598
C 2.87953 3.35843 10.15881 -2.299111 -2.068295 -1.13977
C 3.28674 1.99638 9.8706 0.489761 0.056754 -1.028686
C 4.73882 2.0279 9.85904 -1.63981 -2.333334 -0.469899
C 5.40459 0.93936 10.41299 0.740551 -0.412225 0.672268
C 6.54002 1.11541 11.3179 -1.397976 0.138476 -3.226681
C 3.9621 4.13665 10.37729 2.254523 1.84921 -1.380256
C 5.10965 3.31736 10.16287 1.128555 1.523747 0.712147
C 6.14687 3.48437 11.07016 -1.011449 1.195503 -2.991679
C 6.1925 4.6501 11.81888 1.696937 1.184176 1.911523
C 7.27226 4.36055 12.95765 -1.037304 -0.432095 -1.452831
C 7.44363 2.88755 12.72954 1.363057 -1.726903 4.472626
C 7.5492 1.97258 13.80284 -0.932883 0.168933 -0.664316
C 7.3192 0.42716 13.56243 -1.612881 1.545746 -0.695336
C 6.55161 0.09683 12.2366 0.172242 -0.778648 2.908962
C 6.82347 2.40342 11.61339 1.802445 0.736706 -1.563041
120
energy=-1041.755142 config_type=nep2xyz pbc="T T T" virial="89.2655 -3.1099500000000004 0.30762 -3.1099500000000004 63.05978 -0.24334 0.30762 -0.24334 86.96449" Lattice="16.079445 0.0 0.0 0.0 9.322406 0.0 0.0 0.0 32.320557" Properties=species:S:1:pos:R:3:force:R:3
C 12.46532 0.43568 10.78666 -1.459733 -0.451319 -3.08727
C 13.38358 0.89449 11.68094 2.082974 0.964706 2.169925
C 13.24002 1.89427 12.82709 -1.709309 0.091834 -1.883011
C 10.2415 1.9171 12.72634 2.129182 -0.941572 0.207653
C 10.12387 1.02209 11.54809 -0.378573 2.688975 3.091604
C 11.07173 0.5701 10.63923 0.261202 -0.403248 -1.19234
C 10.36159 8.79194 9.97456 -0.31486 1.188414 0.125397
C 9.15949 8.56659 10.6888 -2.433126 -3.229445 0.406508
C 9.05383 0.16449 11.74456 1.129241 0.599215 -1.465608
C 10.24909 3.24882 12.74631 0.94334 0.412859 -0.506492
C 12.9496 3.24221 12.79206 0.229848 -1.419257 0.196945
C 12.81752 4.11564 11.59117 3.751363 -0.93891 1.91077
C 11.61819 4.47676 11.01623 -0.04338 -0.844157 -0.596611
C 10.38015 4.16341 11.58279 -1.512455 -1.25967 -0.237167
C 9.32488 5.00312 11.34686 -0.159788 -0.341894 -0.106962
C 8.43019 5.30246 12.4843 -2.909702 1.768155 -1.635298
C 9.07221 5.04697 13.71894 0.558724 -0.460192 1.672561
C 10.0634 4.11602 13.86512 0.744137 1.231016 3.09331
C 10.94884 4.69789 15.05717 -0.782118 -1.973883 -2.425386
C 12.3051 4.69632 14.89903 0.188865 0.867872 2.996715
C 13.18194 4.10964 13.97335 0.239273 -0.299171 -1.056253
C 14.21296 5.01881 13.86865 1.609957 -1.236993 -1.481081
C 14.17682 6.00247 14.86737 2.849628 2.149624 -1.255905
C 14.67316 7.28978 14.56662 0.988068 -2.428153 0.463387
C 13.93028 8.40236 15.04653 1.709873 -2.485804 0.927495
C 14.07529 0.08823 14.19205 -2.040019 4.228047 -1.419483
C 12.78398 8.1847 15.71926 -0.930622 -0.138086 2.688767
C 12.30789 6.86773 16.14217 3.137492 2.126877 -0.386228
C 13.02498 5.87815 15.53436 -3.139027 -3.485654 1.259732
C 10.95315 6.93568 16.1394 -2.827342 0.113957 -0.127476
C 10.53264 8.28911 15.77849 1.856922 -0.789759 2.45054
C 11.70448 9.04411 15.54626 -1.263922 1.647184 -0.774418
C 12.97965 0.99988 13.93432 1.870879 -0.112491 1.479343
C 11.66527 0.79718 14.55418 4.537236 -1.553735 2.032236
C 10.48636 1.06122 13.95024 -4.171154 1.203238 -1.604819
C 9.39609 0.2132 14.15983 0.747284 2.435852 0.414829
C 9.40506 8.52356 15.09703 -1.240082 -1.817788 -0.434877
C 8.47706 9.27534 13.07413 -3.037607 -2.027904 -1.097894
C 8.27854 7.7587 13.27781 -0.62008 0.056525 -1.190799
C 8.7499 7.35699 14.53204 -0.95834 -0.935144 0.541076
C 8.24892 6.86833 12.22958 -1.781066 -1.228211 2.267219
C 8.60125 7.20803 10.93732 1.74737 2.805831 -1.437343
C 9.10958 5.99189 14.76214 0.075408 3.480261 0.899459
C 10.30175 5.87188 15.54598 -1.553771 -1.589722 0.208827
C 9.38198 6.12713 10.49923 1.890106 -0.062548 -2.380157
C 10.59694 6.38629 9.78133 -3.05763 0.726639 0.040978
C 11.04327 7.79316 9.38234 -1.221089 -5.765312 0.177718
C 12.42764 7.57827 9.44463 1.434447 1.645044 0.592079
C 13.07336 8.58045 10.12394 1.322715 -0.186869 -0.662199
C 14.2929 8.24252 10.79004 0.802867 0.706517 0.213902
C 11.65565 5.54004 10.14242 0.40118 0.840419 -2.257023
C 12.81349 6.24724 9.86762 2.691781 -0.471898 -0.311284
C 14.05593 5.91957 10.57083 -3.072472 -0.216496 -2.458456
C 14.02077 4.87494 11.49113 -2.179338 -0.482296 -2.1164
C 14.96813 5.22929 12.56211 -0.794502 -0.548751 1.033254
C 15.23441 6.68096 12.28577 1.658888 -0.904645 2.607919
C 15.35187 7.54657 13.32524 -1.276093 2.669052 1.461287
C 15.03045 9.07191 13.14909 2.895277 -0.702903 -3.344875
C 14.39844 9.17233 11.79448 -0.951347 3.872448 1.826238
C 14.85274 6.97157 11.01636 -1.145977 2.142097 -2.243914
C 4.27717 0.01274 10.60307 0.296808 -1.154854 -0.865805
C 5.02114 8.81463 11.66788 1.930411 -0.165453 0.582787
C 4.41195 7.92766 12.73894 1.019212 1.990952 0.535109
C 2.75489 7.95737 12.73061 1.375056 1.964697 0.710591
C 2.18418 8.87614 11.74156 0.418743 0.939104 -4.237399
C 2.92423 0.03358 10.53611 -1.233751 -1.594618 0.960535
C 2.2528 1.1299 9.94713 -2.618084 0.728177 0.483237
C 1.15601 1.53333 10.78354 0.329351 -5.463602 -0.005168
C 1.18738 0.48047 11.81626 -2.56486 0.918814 -0.25775
C 2.26175 6.61392 12.72838 0.712973 -0.9378 1.500165
C 5.03397 6.53597 12.72574 -2.857206 2.278889 -1.669895
C 4.89021 5.76641 11.49093 1.259974 -0.617047 -0.291042
C 3.61675 5.38573 10.93735 -0.206855 0.735651 -1.469659
C 2.40275 5.70634 11.66821 -1.219634 -0.905236 -2.306668
C 1.29295 4.85528 11.44601 -0.253692 1.242835 -0.14341
C 0.2291 4.50321 12.50064 1.807248 1.350526 0.366835
C 0.93064 4.84087 13.78101 1.006184 1.794742 -1.56718
C 1.96627 5.89833 13.91866 -2.419444 -2.594453 -0.069368
C 2.85969 5.23769 14.85977 1.55969 1.116156 0.933163
C 4.24364 5.17632 14.85353 0.458538 2.630412 -0.160674
C 5.20051 5.67916 13.76027 -1.505175 -0.03055 3.447142
C 6.15695 4.72382 13.71656 1.70513 -0.485025 -0.702104
C 6.04684 3.81196 14.76896 3.161695 -0.888631 -1.566797
C 6.65408 2.52214 14.53842 -0.699695 1.400779 1.873252
C 5.88219 1.43543 15.05759 1.320099 -1.24702 -1.554158
C 5.94825 0.32851 14.12808 -0.758967 -0.08952 0.839653
C 4.72221 1.67863 15.75749 1.312969 -3.147705 -0.06221
C 4.34567 2.91217 16.08041 -3.138355 6.796224 1.193196
C 4.9091 4.1145 15.48638 -0.079095 -3.324069 1.990079
C 2.86255 2.99107 16.18839 1.411534 0.487524 -1.878694
C 2.44848 1.64657 15.82433 0.107243 0.392416 0.522993
C 3.57699 0.88475 15.52706 0.73184 -1.252325 1.421995
C 4.75128 8.90572 13.95566 2.913651 -2.474232 -1.650597
C 3.595 9.12739 14.62565 -1.400676 1.650654 2.432919
C 2.40173 8.78467 13.95177 0.696649 -0.688876 0.564632
C 1.36419 0.34412 14.05904 -0.676495 -0.786099 1.296358
C 1.42183 1.41899 14.95712 -0.536768 -0.682864 1.424438
C 0.37709 0.70188 13.00624 -0.436446 -1.672193 1.23696
C 0.13571 2.13808 13.3094 -2.071312 0.161476 -5.685774
C 0.69796 2.49337 14.45988 -0.32087 2.181328 2.149771
C 0.10377 3.06359 12.23442 -0.921271 -1.377162 1.841649
C 0.61915 2.75337 10.95091 -1.102785 -0.259284 0.94362
C 1.12672 3.8181 14.62595 0.672979 -1.603475 3.240377
C 2.30669 4.04064 15.40481 -1.777299 -0.745176 1.503314
C 1.33555 3.87232 10.47949 0.341808 -0.177961 -0.918949
C 2.47386 3.60747 9.73981 -2.101348 -1.468551 -1.31922
C 2.83599 2.22437 9.43927 2.598462 0.992973 -1.389672
C 4.26872 2.15193 9.45536 0.578527 0.494233 -0.150673
C 4.9575 1.07771 10.05197 1.379743 3.069627 -1.883703
C 6.17137 1.35117 10.81869 -1.607007 -1.206441 -1.651324
C 3.59338 4.36028 9.89741 1.664539 2.125149 1.732172
C 4.71046 3.48619 9.72 1.157976 0.269477 -0.586425
C 5.869 3.71061 10.4429 -0.702751 2.227412 0.78398
C 5.92784 4.87592 11.30934 1.60664 -1.335162 -0.355521
C 6.91897 4.51339 12.48637 0.035893 0.580678 -1.701881
C 7.12772 3.03143 12.24455 1.586375 1.509797 2.574088
C 7.36156 2.22154 13.35599 -2.7427 -2.331127 -2.127255
C 6.96675 0.64633 13.06103 0.490152 -0.215015 0.027955
C 6.21425 0.31974 11.75475 0.084966 -0.671267 2.353564
C 6.56395 2.65415 11.05658 0.698475 -1.366688 -1.518196
120
energy=-1041.658366 config_type=nep2xyz pbc="T T T" virial="43.07857 12.81387 3.97544 12.81387 57.45385 25.81212 3.97544 25.81212 65.92247" Lattice="16.282047 0.0 0.0 0.0 9.316235 0.0 0.0 0.0 32.013624" Properties=species:S:1:pos:R:3:force:R:3
C 12.56616 0.59948 10.42099 -1.88266 2.643016 2.02574
C 13.36869 1.15069 11.57838 -1.098138 -1.229529 -2.359361
C 13.00104 2.04415 12.63895 1.686583 0.151655 1.007889
C 10.48883 1.97033 12.72839 -1.260194 -4.900333 -1.823533
C 10.21276 1.06925 11.55119 0.064712 -1.157192 -0.19574
C 11.16073 0.58432 10.46607 -1.187314 1.05271 0.74314
C 10.45628 8.79987 9.88498 0.097683 -0.750827 -0.674592
C 9.31858 8.46805 10.63418 -1.334521 1.177212 0.231587
C 9.11492 0.14003 11.63022 2.093084 1.738465 0.40656
C 10.46673 3.23208 12.49455 0.309824 4.260038 3.068828
C 13.34279 3.36716 12.56229 -3.491651 -0.303583 -0.86729
C 13.09373 4.27888 11.3567 2.394577 -2.966092 0.531966
C 11.83586 4.40968 10.70314 -0.598676 1.312069 -1.23093
C 10.58641 4.08853 11.35457 -2.066374 1.501989 -1.825656
C 9.47125 4.98439 11.14221 0.136134 -1.064606 -0.599386
C 8.38386 5.33161 12.29653 2.461664 -0.650069 -0.813299
C 9.20457 5.08235 13.57158 -0.446276 -0.875313 -1.247898
C 10.27614 4.15416 13.66236 -2.758134 0.879396 -0.390576
C 11.03189 4.63736 14.75777 2.179482 -0.203428 -0.254785
C 12.42962 4.70595 14.64513 0.248923 -0.992286 1.561147
C 13.35361 4.2903 13.63655 0.235547 -0.979791 0.449199
C 14.392 5.18114 13.55571 0.391414 -1.595671 -1.286414
C 14.27733 6.12922 14.52809 1.101807 1.928347 2.23912
C 14.76497 7.47282 14.42288 -0.667491 -1.662406 0.914258
C 14.05054 8.60667 15.04748 0.029004 -2.805932 -0.062987
C 14.11926 0.38172 14.18771 -1.931064 1.856672 -1.058153
C 12.88186 8.19762 15.68141 -0.159372 1.384091 1.068601
C 12.53943 6.81663 15.99595 -1.160819 -0.320187 -0.940529
C 13.165 5.72823 15.30863 -0.556272 3.526451 1.812465
C 11.09145 6.77277 16.01816 -0.054 3.147417 -0.211409
C 10.64238 8.22943 15.77537 -3.66309 -2.099843 -1.068918
C 11.68458 9.04683 15.51848 3.541575 1.354507 -0.142161
C 12.94207 1.21125 13.90693 1.780691 -0.496081 1.090493
C 11.69078 0.91562 14.60608 0.588289 -2.089228 0.891194
C 10.44275 1.14576 13.96381 -0.572313 0.24481 -1.083147
C 9.42607 0.1499 14.01421 0.236902 5.201151 -0.596945
C 9.46329 8.49419 14.91762 2.285364 -2.487642 3.568458
C 8.41015 9.17966 12.93767 0.060375 0.57269 -1.935989
C 8.25407 7.70101 13.08638 -0.459567 0.745823 -1.546221