128
Lattice="0.0 7.252213 7.252213 7.252213 0.0 7.252213 7.252213 7.252213 0.0" Properties=species:S:1:pos:R:3:force:R:3 Energy=-1105.483025 Virial="13.26998 -0.60149 0.33703 -0.60149 15.44415 0.56988 0.33703 0.56988 16.1015" pbc="T T T"
B        7.29487000       0.08846000       7.25598000       0.44070600      -2.28688000       1.03882600
B       14.39999000       9.00980000       9.08699000       3.09568800       0.52263200       0.93381800
B        7.28405000      10.88141000       3.68330000      -1.41727400      -0.18432000      -0.88510300
B        7.29566000      12.60085000       5.45106000      -0.61979200       2.57357700      -0.74666300
B        9.17841000      14.41898000       9.15282000      -2.62737100       2.36538300      -1.76848600
B        8.98817000       9.11251000       3.63158000       0.79327700      -1.02215500       0.28285000
B        1.88245000       3.74734000       5.39676000      -2.66369000      -3.27629300      -0.17989600
B        9.00929000      12.67598000       7.18568000       1.02989300       0.39513600       0.86768700
B        3.66655000       0.05826000       3.66903000      -0.02024400      -0.87640600      -0.81155200
B       10.84358000       9.03563000       5.40134000       0.43726000       1.60442800       2.13973200
B       10.81486000      10.82274000       7.27683000       2.82549400       0.54956000      -1.05897400
B        3.65947000       5.51395000       8.96889000       0.06136500      -1.47439900       2.65931100
B       12.69774000      14.38573000      12.71701000       0.46662700       2.38984900      -0.42305800
B       12.79863000       8.95371000       7.30592000      -3.38483200       2.50560800      -0.08961000
B       12.67996000      10.92162000       9.11601000      -0.22865200      -1.44876300      -0.30786800
B        5.47193000       5.51215000      10.83003000       0.43864900      -1.44442300       0.52876200
B        1.91506000       9.06902000       7.22396000      -2.96137900      -0.20944400       1.63449800
B        1.84474000       3.60342000       1.85860000      -1.43387200      -0.45003500      -0.88233800
B        1.82905000       5.39143000       3.63002000       0.69648900       1.30111400       0.29466900
B        1.79926000       7.23068000       5.45920000       0.22858600      -0.13111000      -1.05770500
B        3.64195000       9.04007000       9.08687000      -0.51922800      -0.12694700      -0.31575300
B        3.60509000       3.62347000       3.59136000       0.16335000       0.43511700       0.30466600
B        3.64040000       5.44766000       5.42052000       1.11840900       0.01135100       0.14900800
B        3.60535000       7.25642000       7.25392000       0.95611000      -1.19568600      -0.17368800
B        5.46568000       1.76797000       3.69972000      -0.55091400       0.44051900      -1.91787300
B        5.42070000       3.62682000       5.46535000       0.16879800      -0.63037900      -0.81214200
B        5.53031000       5.44096000       7.20467000      -2.32521400       0.95074500       1.96131300
B        5.51324000       7.30207000       9.02141000      -0.07525100      -0.67066300       0.18206200
B        7.29030000       1.87892000       5.48836000      -1.82836600      -1.91890800      -1.56337500
B        7.31355000       3.69514000       7.27283000      -1.37446400      -1.26254800      -0.34624700
B        7.29739000       5.43273000       9.06349000      -1.57935200       0.62028300       1.35370300
B        7.28582000       7.21270000      10.87272000      -0.14858500       1.15022300       0.13865300
B        3.67925000      10.89057000       7.25610000      -1.03904800      -0.86621200       0.19658100
B       10.84934000       5.45119000       9.03862000       1.63302300      -0.91455600      -0.08239000
B        3.66255000       7.19846000       3.64055000      -1.11921600       0.38730300      -0.68238900
B       10.85156000       9.01408000      12.60944000      -0.21404000       1.41117800       2.06776900
B        5.41166000       3.66658000       1.84550000       0.39671100      -0.97668100      -1.36017700
B        5.36395000       5.43248000       3.58694000       2.54059900      -0.05468200      -0.91724500
B        5.45163000       7.31253000       5.42926000      -0.97759000      -0.98066500      -0.44705700
B        5.45483000       9.03280000       7.24212000      -0.97723500       1.34353300      -0.01986000
B        7.30355000      10.85094000      10.82589000      -2.51042700       0.78892600       0.94111500
B        7.20808000       5.52093000       5.35030000      -0.01149300      -1.42943500       1.36194400
B        7.20764000       7.29991000       7.19625000      -0.21999500      -1.22242900       1.36769000
B        7.23357000       9.10199000       9.01209000      -0.05894500      -0.52100000       1.00503500
B        9.09685000      10.89144000      12.68198000      -1.28261900      -0.10700700      -0.28219200
B        9.02276000       5.53423000       7.30285000      -0.15166000      -2.52452600      -1.49473500
B        9.03227000       7.19611000       9.07076000       0.51866100       0.79283500       0.35294000
B        8.97700000       9.05490000      10.86177000       2.17118100      -0.72965700       0.47009500
B        5.52312000      12.72317000       7.22725000      -1.47384400      -1.02733700       0.46249000
B       12.65929000       7.26912000       9.04309000      -0.79035000      -1.18934900       0.12353000
B        5.45090000       9.10356000       3.68803000      -1.40063100      -0.42423900      -0.90216200
B        5.44280000      10.89089000       5.45491000       0.68200200      -0.86288200       0.00022300
B        7.35288000      12.73352000       9.05992000      -3.72248900      -1.40153200      -0.84174800
B        7.12768000       7.28606000       3.58798000       1.95409000      -1.00570300       0.90325400
B        7.35065000       9.10825000       5.48076000      -2.87924300      -0.40389200      -1.49707700
B        7.25151000      10.92379000       7.21556000      -0.74393700      -1.72487600       1.53822300
B        9.03989000       5.49873000       3.66036000       0.78474200      -1.56533300      -0.43803600
B        9.04944000       7.31989000       5.47587000      -0.07674700      -0.87475800      -0.55005700
B        9.04338000       9.06841000       7.27489000      -0.58877600       0.33611600      -0.20739200
B        9.09692000      10.91132000       8.99085000      -1.04329300      -0.08629900       2.31010900
B       10.92000000      12.61148000      12.75690000      -1.18148300       0.28562500      -2.25122700
B       10.86788000       7.13857000       7.22508000       0.66930200       3.55574600       0.35120500
B       10.79605000       9.04444000       9.11391000       2.15719500      -0.38300500      -0.16749400
B       10.85956000      10.84546000      10.94651000       1.66438500       1.98288800      -2.82526300
N        0.99094000       0.91623000       0.97405000      -1.91871400      -0.69461500      -1.21021000
N        0.81957000       2.67502000       2.79270000       1.04340100       1.31883700      -2.02573800
N        0.95456000       4.53941000       4.52466000      -1.22302800       0.12468600       0.37757700
N        0.89980000       6.35276000       6.32012000      -0.12697400      -0.70589000       0.49833300
N        2.70908000       0.94022000       2.75397000       1.05771000      -1.38411000       0.70606700
N        2.61608000       2.83894000       4.49049000       3.24612300      -3.45900500       0.34445900
N        2.70697000       4.51757000       6.25826000       1.87791900       1.40312000       3.69879200
N        2.69564000       6.29575000       8.12803000       0.86585900       1.06359600      -0.00661900
N        4.52446000       0.89459000       4.61164000       0.93556100      -0.45307600      -1.74088200
N        4.56435000       2.59324000       6.38606000      -0.93445300       3.59327400      -0.96572000
N        4.49384000       4.54107000       8.20255000       1.51389800      -0.80329300      -2.09131200
N        4.67839000       6.45346000       9.90990000      -4.05375600      -1.93759500       1.83669000
N        6.36521000       0.88198000       6.40505000       0.80921200      -0.17014900      -1.92440700
N        6.38195000       2.66175000       8.20816000      -1.18751800       2.18851900      -1.29605200
N        6.37350000       4.54458000       9.99239000      -0.17822400      -0.04601700      -0.36825400
N        6.39792000       6.33154000      11.76310000      -1.10989600      -0.21281600       1.07915800
N        2.72568000       2.64531000       0.93276000       0.97884700       2.71701300      -0.35863400
N        2.72180000       4.53783000       2.71394000      -0.07579700      -0.46171900      -0.97579900
N        2.76815000       6.31271000       4.55622000      -1.29927200       0.78464900      -0.49160000
N        2.67288000       8.09719000       6.36425000       1.79645400       1.55431600      -1.42708900
N        4.47021000       2.70835000       2.71200000       1.73101900       0.17575700       0.88090300
N        4.51986000       4.59577000       4.43656000      -0.66759100      -3.12257700       3.05819100
N        4.61371000       6.35181000       6.34455000      -2.11605700       0.36220600      -0.05490100
N        4.52065000       8.10761000       8.16216000       0.53936000       1.60993400      -0.74163500
N        6.31409000       2.68531000       4.50480000       1.45090200       1.43520900       1.77504700
N        6.33891000       4.59517000       6.32828000       0.92899000      -2.23166900      -0.42832600
N        6.38123000       6.34830000       8.16561000      -0.14246700       0.09391700      -0.94796700
N        6.42278000       8.17651000       9.90699000      -1.71288400      -0.54024500       2.13971900
N        8.14208000       2.77102000       6.31860000       1.87296200      -0.47019400       1.22237500
N        8.14434000       4.58848000       8.20390000       1.75180800      -1.68550500      -1.00615900
N        8.19701000       6.28993000      10.04180000      -0.36904700       0.81510700      -2.23954100
N        8.15371000       8.13595000      11.79087000       0.15052500       0.89850900       0.74642700
N        4.58489000       4.58102000       0.84526000      -1.44049200      -1.09231400       1.74216000
N        4.54510000       6.30156000       2.67190000      -1.47205900       1.08755700       0.17658000
N        4.47138000       8.17195000       4.50904000       2.14663400      -0.77635300       0.84664400
N        4.51985000       9.97196000       6.33170000       0.14939900      -0.79004600      -0.07515000
N        6.38214000       4.48275000       2.66323000      -0.41645400       1.94369600       1.55319800
N        6.24036000       6.37093000       4.46448000       2.10142400       0.08586300       0.86039900
N        6.38009000       8.18679000       6.28991000      -1.15085300       0.33517600       1.29560900
N        6.27795000      10.00277000       8.18225000       1.55673200      -1.06529600      -1.43167700
N        8.10390000       4.53160000       4.50941000       1.66484000       1.26282000       0.64662800
N        8.07169000       6.41174000       6.38706000       2.70551200      -1.36663000      -2.71227900
N        8.07684000       8.08919000       8.12184000       2.65081300       2.89076700       1.22856800
N        8.12722000       9.94591000       9.99954000       1.57182900       0.20327000      -2.81700600
N        9.92730000       4.46826000       6.38523000       1.16452600       2.30391200      -0.55819500
N       10.01214000       6.31606000       8.12760000      -2.30279000       0.81535000       0.84791300
N        9.94763000       8.08045000      10.01778000      -0.75062600       1.38940300      -1.66483000
N       10.01283000       9.98685000      11.73638000      -3.15489900      -1.53324300       2.36133600
N        6.31633000       6.36728000       0.86669000       2.38745700       1.05983500       1.27035200
N        6.22213000       8.12074000       2.75988000       2.06187500       1.52894400      -1.34737000
N        6.35699000       9.98671000       4.58920000       0.40029700      -0.10902200      -0.61067200
N        6.38587000      11.75863000       6.36400000      -0.95415600       1.45277200      -1.36500800
N        8.14715000       6.33493000       2.70262000       0.71111300       1.53994400       1.60367100
N        8.11761000       8.17371000       4.53639000       0.81221900      -0.27489000      -0.22331700
N        8.12550000      10.02265000       6.32903000       2.42455100       0.02672600       1.60589000
N        8.10220000      11.80062000       8.12609000       2.67724800      -0.30588000      -0.32252500
N       10.04725000       6.37305000       4.56777000      -2.15441800      -0.81265400      -0.06648400
N        9.92311000       8.24123000       6.38225000       0.72786300      -2.81654000      -1.50340600
N        9.98109000       9.96046000       8.16760000      -2.11746900      -0.11571600       0.57240900
N        9.92200000      11.79239000       9.98211000       1.58436300       0.91124300      -0.06484100
N       11.76185000       6.26893000       6.31027000       1.65614700       1.20700200       1.57982000
N       11.74762000       8.15601000       8.17677000       0.38876900      -1.35216800      -0.30080600
N       11.76559000       9.94809000      10.02330000       0.11117400       0.98475700      -0.66677300
N       11.88559000      11.77583000      11.78897000      -3.04649200       0.80728300      -0.13866000
128
Lattice="0.0 7.252213 7.252213 7.252213 0.0 7.252213 7.252213 7.252213 0.0" Properties=species:S:1:pos:R:3:force:R:3 Energy=-1098.182021 Virial="22.83322 -1.89862 -2.18068 -1.89862 21.19868 -5.63842 -2.18068 -5.63842 24.84196" pbc="T T T"
B        7.24330000       7.25669000      14.49018000      -0.22567100      -1.04634200      -1.48307200
B        7.22033000       1.74347000       8.93666000      -0.58088300       0.57386100       2.74290200
B        7.26766000      10.79882000       3.66798000      -1.81556900       1.14002400      -1.07950100
B        0.14003000       5.38268000       5.29750000      -3.66411000       3.15355000       3.71448900
B        8.95975000       7.27060000       1.89864000       2.46652500      -0.13443200      -1.98260800
B        8.93503000       9.15400000       3.63945000       2.41810000      -1.57187200      -0.13140300
B        1.88800000       3.76988000       5.51644000       0.11845600      -1.92712600      -0.83364900
B        1.77636000       5.50548000       7.23087000       1.56247600      -0.21746500       2.23145400
B        3.67744000       0.05637000       3.68770000      -3.30770000      -0.46692700      -1.29610000
B       10.86153000       9.01204000       5.46740000       0.61228500       3.65767000      -1.05693200
B        3.76990000       3.77834000       7.29152000      -3.42056200      -3.15331200      -0.73469500
B        3.69776000       5.54584000       9.09242000      -1.86884900      -0.29255000      -0.02793400
B        5.47940000       7.19652000      12.67121000       0.02928300       1.42731900       0.15904700
B       12.61837000       9.04221000       7.33630000       0.00876500       1.23524100      -1.27555400
B       12.65614000      10.82888000       9.10891000       0.69653000       0.93503000       0.20266000
B        5.44603000       5.47334000      10.86727000      -0.33322400       0.80730500      -0.71139800
B        9.12779000       9.11128000      14.41910000      -2.34159600      -1.58708400      -0.38863000
B        9.05935000       3.61029000       8.98381000      -0.11350700      -1.41954200       1.76727000
B        1.86433000       5.34360000       3.57454000      -0.70349700       1.32336500       0.44400600
B        9.14332000       7.29056000      12.50731000      -0.69977000      -0.80987700       2.20047600
B        3.60854000       8.96444000       9.08921000       0.51812100       1.33912300      -1.22849100
B        3.65153000       3.60296000       3.61860000      -0.40702100      -0.15201200       0.80356700
B        3.72795000       5.41857000       5.48003000      -1.92391400       1.87193500       0.18271000
B        3.51062000       7.28780000       7.24486000       3.24886000       0.44240100      -0.47713300
B        5.40526000       9.03176000      10.87291000       0.93289000       0.06560000      -0.61574500
B        5.49654000       3.61319000       5.49225000       0.09521200      -1.48249000      -0.79793100
B        5.48927000       5.30013000       7.25737000       1.14759600       4.51031200      -0.09870500
B        5.42062000       7.17943000       9.00964000       0.54495800       2.31786800      -0.84056100
B        7.23234000       8.98699000      12.64034000       0.08832200       2.41708600       0.43605400
B        7.30376000       3.57766000       7.15707000      -0.30384600      -0.78885600       3.54803600
B        7.20950000       5.43369000       8.98629000       1.25342000      -1.27760100       1.38518100
B        7.27600000       7.24517000      10.81789000      -0.80800600      -1.38064900      -0.50741200
B        3.57988000       3.55682000       0.10823000       2.61588800       2.07834000      -2.81942300
B        3.71373000       5.33985000       1.82646000      -2.40774500       1.12476500       0.64586500
B        3.74942000       7.18941000       3.62450000      -2.72621500       0.52031700       0.87954400
B       10.87801000       9.12322000      12.70613000       0.95372900      -0.08277700      -0.77904100
B        5.54069000      10.88071000       9.12263000      -1.81414300      -0.28375000      -1.87371600
B        5.58286000       5.37235000       3.70007000      -2.40642700       1.11221200       0.88264600
B        5.48925000       7.28661000       5.47875000       0.33906300      -0.82444100       0.68452600
B        5.46103000       9.08679000       7.18354000      -0.15717500       0.01000600       1.52861200
B        7.28161000      10.72589000      10.79059000      -0.37648200       3.79802100       2.14429200
B        7.22721000       5.39194000       5.52211000       2.66237800       1.31050700      -1.48091900
B        7.18916000       7.32140000       7.26202000       2.09653900      -1.87333000       1.60172200
B        7.20993000       8.98917000       9.07016000       1.20704800       1.32357200      -1.13551400
B        9.10464000       3.72590000       5.46082000      -1.64145800      -1.68063400       0.23134600
B        9.05377000       5.46245000       7.18565000      -0.54365800       0.47036600       3.30254800
B        9.03726000       7.18102000       9.06503000       0.27528100       1.52699900       0.83606300
B        9.02211000       9.12574000      10.91467000       0.18104600      -0.97884000      -1.33025000
B       12.62540000       5.53210000       7.28634000       2.32695500      -4.76854200       0.20014600
B        5.37300000       7.10378000       1.89856000       1.91090000       3.27166000      -2.01195800
B        5.38408000       8.94896000       3.61343000       2.37039700       2.67138400      -0.13802500
B       12.60752000      10.99361000      12.63316000       0.56224900      -2.51707100       1.42961300
B        7.25141000       5.47086000       1.84694000       0.42383000      -2.65176400      -1.91215600
B        7.18525000       7.02870000       3.59355000       2.61924700       5.56368100      -0.74525600
B        7.43096000       9.14128000       5.48892000      -4.72292900      -0.93051200      -1.98979900
B        7.13879000      10.94126000       7.19859000       2.42362500      -0.98004000       1.61304100
B        9.05735000      12.63231000      10.91474000       0.65026600       0.91821000      -1.29833100
B        8.97261000       7.31633000       5.48942000       1.17587100      -0.57013200      -1.60989800
B        9.07814000       9.06560000       7.21044000       0.73964800       1.65942100       1.30491900
B        9.07542000      10.88385000       8.92214000       0.00138800      -0.38181300       2.29355600
B       10.87933000       5.57244000       5.47488000      -1.95095800      -1.34661100       0.06358500
B       10.89378000       7.27997000       7.28282000      -1.58923800       0.41145500       0.11392600
B       10.79397000       9.06138000       9.21801000      -0.93441700       0.43713300      -3.01033100
B       10.84064000      10.93073000      10.93551000      -0.55101300      -0.02772800      -0.69280900
N        0.85968000       0.84903000       0.82076000       1.36883300       2.06306900       1.95658700
N        0.82618000       2.70368000       2.69265000       1.16981500      -0.03699800      -1.07098500
N        0.97281000       4.51231000       4.58283000      -0.04544400      -0.76284900      -3.56106600
N        1.03066000       6.34474000       6.30081000      -3.92760600       1.38099800      -1.64803100
N        2.65194000       0.88123000       2.79912000       0.60959200       2.23809200      -1.31570000
N        2.66621000       2.82571000       4.54023000       1.82078200      -2.15269100       0.50442700
N        2.73820000       4.66916000       6.40740000       1.76499400      -2.16388700      -0.10041800
N        2.70020000       6.49218000       8.20449000      -0.47164600      -2.88406200      -0.26875300
N        4.50655000       0.93181000       4.54627000       1.14821500      -0.58681600       0.44126800
N        4.55106000       2.74323000       6.37375000       0.32315300       0.42781900      -0.12794200
N        4.64313000       4.60258000       8.20215000      -2.78705400      -1.89557400       0.46690200
N        4.54813000       6.49385000       9.97031000      -1.23630000      -3.81291700       0.87474300
N        6.30400000       0.96002000       6.28063000       0.08267900      -3.26303200       2.44719700
N        6.30167000       2.69195000       8.19054000      -0.06407000      -0.51768900      -1.05465100
N        6.27750000       4.60168000       9.90078000       0.85782200      -2.51843600       2.50015900
N        6.37431000       6.34779000      11.71024000       0.84251600      -0.43453800       1.72725600
N        2.74650000       2.64212000       0.83734000      -2.12977800       0.30616700       3.40572000
N        2.71703000       4.46186000       2.72408000       1.34136200       0.25101800      -1.71908900
N        2.78368000       6.27435000       4.43008000       0.24987700       1.35409400       1.75209200
N        2.76199000       8.24562000       6.23692000      -1.92417000      -3.17746700       0.98019100
N        4.55914000       2.71955000       2.67332000      -0.26181600      -0.99913100       2.15841800
N        4.61812000       4.54523000       4.68213000       0.48627800      -1.29641600      -3.87680800
N        4.53791000       6.31958000       6.41534000       0.92343300       0.62506000      -1.67912800
N        4.55180000       8.17768000       8.05518000      -0.86930800      -1.13568900       2.41268200
N        6.39334000       2.66252000       4.47930000      -1.89570600       0.50558300       0.18045600
N        6.47053000       4.46592000       6.37654000      -4.14133700       0.74497100      -0.84451900
N        6.37316000       6.35290000       8.15308000      -1.09872900      -0.86635800      -1.20196900
N        6.32037000       8.01629000       9.89727000       0.65062900       3.74268600       1.04743700
N        8.11811000       2.72228000       6.30814000       2.15799900      -1.43131200      -0.22970600
N        8.17104000       4.41538000       8.11688000      -0.47479300       3.01644700      -0.27966300
N        8.15369000       6.22089000       9.95456000       0.53106900       1.94413000      -0.47682800
N        8.08575000       8.20736000      11.68648000       2.12208800      -2.43685700       1.40849600
N        4.54777000       4.45488000       0.95113000      -0.37601400       1.73703200      -0.40752000
N        4.57546000       6.26650000       2.76824000      -0.32404700      -0.92733400       0.10390100
N        4.63972000       8.13615000       4.56254000      -3.36875600      -0.89134700      -0.05683800
N        4.50195000       9.96597000       6.38540000      -0.00940100       1.69781900      -2.18267200
N        6.38839000       4.60379000       2.71553000      -0.12334000      -3.60000200       1.66399000
N        6.46395000       6.37713000       4.63028000      -3.58565900      -3.51732300      -0.48112800
N        6.42292000       8.15549000       6.35460000      -1.34130100       2.59615900      -0.30092900
N        6.37195000       9.98896000       8.15727000      -0.60177000      -0.98101600      -0.08901300
N        8.18384000       4.48309000       4.53025000      -0.93708700       1.24432500       0.31465900
N        8.07946000       6.35774000       6.45222000       1.68607000       0.29110400      -2.80505400
N        8.18808000       8.18571000       8.17410000      -1.12381200      -0.81870400      -0.75162800
N        8.14117000       9.97281000       9.91727000       1.27411100      -1.48404200      -0.39169100
N        9.95108000       4.61530000       6.39796000       1.46872000      -1.52024000      -1.34417800
N        9.93066000       6.41323000       8.16104000       2.06719400      -2.95808400      -0.66430900
N        9.93147000       8.13031000      10.05925000       0.80197000       0.24794200      -0.43554300
N        9.86056000       9.99427000      11.86060000       3.85648200       0.85866800      -1.55174400
N        6.33275000       6.27432000       0.96803000      -0.95919800       2.60965900      -2.48720400
N        6.31091000       8.06497000       2.68718000      -0.40716200      -0.52380300       0.00519600
N        6.26333000       9.92862000       4.51315000       1.54561600       2.24658800       0.11161100
N        6.23762000      11.73225000       6.33809000       2.04090500       3.04522600      -0.59919300
N        8.18701000       6.22703000       2.64535000      -1.18942700       2.91183400       4.05903700
N        8.08793000       8.20324000       4.47461000       1.55066100      -0.68811800       2.20429600
N        8.20147000      10.13667000       6.30685000      -0.39154000      -3.12744300       1.80652100
N        8.11759000      11.79179000       8.21352000       0.00073600       1.19178600      -3.62892200
N        9.89134000       6.42798000       4.55065000       1.53873400      -1.34559600       0.89669900
N       10.02760000       8.20738000       6.33135000      -3.31503300      -2.23981900       0.39058300
N        9.98922000       9.95065000       8.10309000      -0.51424000       2.41933500       1.71495000
N        9.99124000      11.78721000       9.95583000       0.29738600       0.63209500       0.00782300
N       11.84420000       6.30533000       6.35514000      -1.94339600       4.23610500       0.51896400
N       11.57803000       8.25963000       8.19563000       5.10160000      -3.57145000       0.30620000
N       11.67501000       9.97018000      10.02451000       2.24372100       0.03675800       0.73178000
N       11.71463000      11.97483000      11.84402000       0.97634000      -3.85514400      -2.64634400
128
Lattice="0.0 7.252213 7.252213 7.252213 0.0 7.252213 7.252213 7.252213 0.0" Properties=species:S:1:pos:R:3:force:R:3 Energy=-1104.172567 Virial="16.52237 1.42269 -1.13311 1.42269 15.13903 -2.193 -1.13311 -2.193 15.75946" pbc="T T T"
B       14.42306000       7.28436000       7.22562000       1.78827600      -1.04523400       0.35589400
B        7.17663000       8.95792000       1.82293000       0.71266100       2.42091100      -0.77262200
B        7.26041000      10.83960000       3.63037000      -0.97079800       1.18036600       0.78999900
B        7.29443000       5.47419000      12.63831000      -0.64128800       0.09303400       0.37054500
B        9.00260000       7.20167000       1.85212000       1.87205100       1.40116400      -1.44131000
B        8.95478000       9.07639000       3.66498000       2.14007900      -0.56110300      -0.86018300
B        1.82958000       3.63733000       5.44252000       1.29815500       1.58010800      -0.40420300
B        9.03248000      12.68530000       7.30169000       0.66301400       1.99904500      -1.27404000
B        3.62491000       0.11798000       3.57123000       1.12796600      -3.07746200       1.41435800
B       10.85035000       9.08765000       5.44093000       1.20820000      -0.23330100       1.37606700
B       10.85127000      10.89887000       7.28364000       0.87293700       0.08776300       0.06868000
B       10.91502000      12.66538000       9.08885000      -0.63152200       2.17329000       0.16812200
B       12.64770000       7.22232000       5.46325000       0.44820100       0.80687400      -0.98440500
B       12.71401000       9.06093000       7.27379000      -1.21151700       0.03599400      -0.32506500
B        5.49534000       3.63806000       9.08078000      -0.49241600      -0.69202800       0.60678400
B       12.68427000      12.66523000      10.98079000       0.25834100       1.32010100      -3.54036200
B        9.05376000       9.01388000      14.45107000       0.55406800       0.84364200       1.39483900
B        1.79400000       3.49904000       1.79155000      -0.36287500       1.83327500       0.33674100
B        1.88319000       5.38318000       3.65596000       0.13545200       0.49183200      -0.74092800
B        1.83612000       7.21817000       5.44791000       0.46607200       1.08226800      -0.32386700