138
energy=-867.8431396484375 config_type=nep2xyz pbc="T T T" virial="5.958613872528076 -0.49072733521461487 -0.34089425206184387 -0.49072733521461487 2.148106575012207 0.1039217934012413 -0.34089425206184387 0.1039217934012413 -5.379316329956055" Lattice="14.8951397 -8.81224809e-16 5.73441835e-16 -4.96504736 14.0434504 -5.18064239e-15 -4.96505356 -7.0217433 12.1619806" Properties=species:S:1:pos:R:3:force:R:3
Zn 2.5361369 8.783038 3.0142534 -0.16749603 -0.029591223 0.37995377
Zn 7.457956 5.2222214 3.0780005 0.16326502 0.51480967 -0.5033944
Zn -2.4914753 1.7712667 9.158339 0.1514384 -0.28068045 -0.49178398
Zn 2.4722517 -1.7525548 9.105101 -0.54843014 -0.22005965 -0.20863037
Zn 7.4463997 0.059934787 6.117771 -0.13262661 -0.49671006 -0.46992445
Zn -2.4705818 7.035496 6.0919724 0.03500483 -0.21348204 -0.14659958
H 4.779998 9.410208 5.2627926 -0.7402112 1.3524724 -0.49322173
H -0.25106716 8.57618 1.5911459 0.040092245 0.051260196 -0.5045248
H 8.092726 2.5008323 1.520833 0.13802786 -0.30334568 0.79954547
H -5.2678123 1.5163296 10.662196 -0.41426256 -0.5887228 -1.0313863
H 3.0252118 -4.439464 10.546905 0.25377378 0.034235593 1.0869974
H -0.53801095 -2.9679897 8.25229 0.3853761 -0.17940445 0.029509647
H -2.570585 -1.3094032 7.9118195 -0.90575725 -0.027214779 -0.17386298
H 4.549113 4.122914 4.1009994 0.12031135 0.25592956 -0.27420077
H 2.4000542 5.630474 3.9934142 -0.8910416 0.31846136 0.07466187
H 8.181902 0.116321586 2.8849952 0.027753307 -0.3759312 0.11736989
H -2.4867678 7.6003056 2.8506203 0.34405732 -0.048376948 0.35562178
H -1.8402678 7.157987 9.273364 0.05641547 -0.30869347 -0.053627845
H 7.3161993 0.67852074 9.265837 0.33723867 0.05147315 -0.28379932
H -5.360362 8.39363 6.6321015 -0.1036432 0.09676007 -0.46040764
H 4.519542 1.5373415 5.6671643 0.13735178 0.028383853 -0.15479764
H 9.837856 -2.141128 6.48067 -0.30198774 0.15619457 -0.23648043
H -0.24607736 4.8320456 5.6139474 -0.6206243 -0.38972148 0.7059377
H 3.0321312 11.429722 1.478895 -0.1618048 -0.58523923 -0.80486244
H -1.8630269 4.4877315 10.91878 -0.09134515 -0.3014807 -0.66778415
H 9.862939 6.816227 1.2298877 -0.2003974 -0.26975355 -0.25250423
H 4.728335 -0.22960895 10.670124 -0.15106523 -0.2993267 -0.20623599
H 2.3008108 0.53120214 6.9717355 -1.0649236 0.50011116 -0.20642075
H 7.307588 7.6235123 5.160916 -0.6599297 0.40033385 0.28278852
H -0.25979328 2.4276607 6.9135346 0.41852498 -0.68792415 0.13143988
H 1.0371413 11.674401 2.7744405 -0.29759973 -0.22037917 0.3434159
H 1.9288905 7.645363 5.8216443 0.8675054 -0.32268548 -0.020523407
H 6.2739205 4.166424 5.7302756 0.15743434 0.115667075 -0.2287131
H -3.1738129 0.25280568 6.4167376 0.022261675 0.048585445 -0.16791467
H 1.8815371 -2.542711 6.235711 0.34609318 0.5064187 0.27526933
H 1.8168534 1.1752335 9.267818 -0.10647658 0.38921317 0.3701609
H 0.26362115 2.1794255 9.590624 0.9972893 -1.1087209 0.09799513
H 6.988122 8.034329 2.7543964 -0.07913729 -0.033182092 -0.08817737
H 5.6673927 9.248799 2.698205 0.06671871 -1.472628 -0.09347079
H 6.5558248 2.7862682 6.7012744 0.23385662 -0.4498603 -0.27495667
H 0.46993497 7.1851687 6.749267 -0.018161826 -0.20903726 -0.11975001
H -3.727745 10.053897 5.578616 -0.31351388 -0.4212214 0.045453086
H 10.201487 0.2869299 5.4508934 0.5420064 0.7076093 0.46714613
H -3.08292 5.2939706 3.6351902 -0.25412613 -0.2305484 0.31153467
H 6.858625 -1.7015254 8.633896 0.008452242 0.24087226 0.38385057
H 6.1858196 -0.9424398 3.7448115 -0.30968148 -0.6701987 0.3830124
H -3.8915422 5.8009176 8.829032 0.14563121 -0.13937287 0.15961295
H 1.5426219 6.84809 0.8907387 0.11032423 0.3319242 -1.0000184
H -3.247385 -0.14488617 11.234351 -0.63696635 -0.6937797 -0.9472904
H 6.2031846 3.606759 0.8955148 0.097546026 -0.2345551 0.098962925
H 0.89549625 -3.2619634 11.305718 0.35517332 0.6693083 0.66883945
H 5.233765 -2.2907615 9.2340975 0.2894909 -0.3509626 0.50918084
H 10.303672 4.711484 2.9065413 0.40209684 -0.014266669 0.8549197
H -4.163952 4.0498137 9.205997 0.05948133 0.24688861 -0.28257516
H 5.132638 -2.297843 4.3570256 -0.0569081 -0.054811403 0.07097763
H 0.85521454 8.910078 6.454052 0.024362091 -1.325986 -0.61515015
H 7.860516 3.8781154 6.3762045 0.8888359 0.43588918 0.3156241
H -3.8129103 1.8329215 5.989992 0.0351417 0.21887635 -0.5173868
H -2.0036266 10.28278 5.3652267 -0.64397496 0.49974662 0.6135946
H 0.88963014 1.0292773 10.828315 0.3181256 0.06005247 0.18314323
H 5.9646354 8.178426 1.3286414 -0.022737049 -0.19308057 -0.4252784
H -4.0631595 4.050864 4.487292 -0.04902624 -0.18511885 0.41564235
H 6.0074024 -2.9135897 7.7546544 -0.28842753 -0.13593169 -0.21912168
H -4.6645007 4.809204 7.649718 -0.58740276 -0.17580467 -0.13021787
H 3.0597098 6.6017003 0.16185415 1.0024049 -0.32541442 -0.19907846
H 5.253467 4.9324846 0.364878 -0.5382737 0.30840912 -0.076725505
C 2.3426843 11.448189 4.4490376 0.8918848 0.53016156 1.3893658
C 0.13534789 7.841316 4.687356 0.97696704 0.33544022 1.0725888
C 7.390895 2.6799908 4.6558275 0.18474948 -0.45417783 0.39996636
C -4.884933 0.8605539 7.50962 1.1127476 0.21965101 0.46316352
C -2.5307524 9.706425 7.402541 -0.35146675 1.3374887 0.75886273
C 0.0077009797 0.076486334 9.140449 0.64668596 0.71323043 0.3456048
C 5.08937 7.106596 2.9805458 -1.2216457 0.39922783 0.38956442
C -4.894709 6.1059 4.493628 1.1832986 -0.18104391 -0.38564703
C 5.0350986 -0.9233481 7.669633 0.6301878 -0.86646754 0.35960376
C -2.6110542 4.428161 7.728351 -1.4000556 0.5175372 1.1004486
C -2.5941005 1.6014967 12.154613 0.48319235 -0.6507798 0.19140188
C 7.3364787 5.183771 0.005292962 0.17786387 -0.6657379 -0.9671152
C 4.142331 10.336444 5.0791206 0.57798815 -1.1887647 0.71669966
C -0.37889874 8.228409 2.5947835 0.042962212 -0.35851404 1.2717494
C 7.9682226 2.2698498 2.599614 -0.5330973 1.273623 -1.1758249
C -5.422748 1.1633464 9.605319 -0.04047853 0.6412014 0.71860117
C 2.863677 -4.712027 9.539421 0.20666121 0.91876143 -1.0472512
C -0.55835354 -1.9165674 8.497733 -0.39514685 0.45898455 -0.45903087
C -1.6236006 -1.0622323 8.322616 0.3414709 -0.6983674 0.19919956
C 4.4705896 5.1447506 3.718178 0.41098908 0.0032876593 0.41070688
C 3.3697653 5.9575195 3.6960232 0.5258902 -0.5098561 -0.13222764
C 7.9352603 1.088349 3.2766957 0.69765997 -0.09068727 -0.8278973
C -1.4744523 7.7363586 3.2568462 -0.99303746 0.15831004 -0.100689135
C -2.0253782 8.143412 8.881565 -0.7205049 0.052475475 -0.38915312
C 8.339856 0.81272954 8.895445 -0.09175598 -0.12787418 0.18638545
C -5.448671 7.72022 5.769384 -0.32823634 1.782 2.3581612
C 4.447865 0.71425426 6.3649774 -1.256926 0.3841654 -0.06538887
C 9.12638 -2.4871912 5.7262025 -0.34422353 -0.5927247 -0.051715095
C -0.9401493 4.441001 6.4000993 1.5626593 0.87935656 -1.8252152
C 2.841045 10.636182 0.7202643 -0.20996931 -0.269262 -0.4343419
C -2.114052 3.6006088 11.487969 0.60474414 1.0141355 1.3661582
C 9.169409 6.2878065 0.56698036 -1.5634574 -0.4556321 0.50266933
C 4.079021 -0.7657636 11.361886 0.992253 0.67009366 0.24375269
C 3.3150012 0.24706905 7.009309 1.29705 -0.40901592 0.2352781
C 8.317733 7.289699 5.1518593 -0.10610253 0.17043942 -0.89572936
C -0.9185278 3.2501502 7.0485177 -0.6590992 0.38915214 0.33974445
C 6.0625043 -2.053298 3.8362384 0.5227913 0.3636398 -1.3365095
C 0.8911675 7.8474064 5.9882865 -0.78205353 1.9188083 0.3625913
C 7.0302124 3.3866994 5.9115114 -1.1863726 0.15857746 0.13476186
C -4.1042514 0.81641 6.2498255 -0.061661 -0.82572275 -0.13160841
C -2.8554487 10.454656 6.0936007 1.1271502 -1.5432565 0.11060256
C 0.823428 1.1890798 9.749018 -1.2414716 0.61132926 -0.734331
C 5.949419 8.167169 2.4173064 0.107308134 1.9254706 0.4135032
C -4.1098824 4.962997 3.900923 -0.28270218 1.0200902 -1.8809803
C 5.8487897 -2.029148 8.379755 -0.7309874 1.1769743 -1.0599062
C -3.8975892 4.7777023 8.419781 0.31237644 0.31807086 -0.09971465
C -2.8059525 0.13851754 12.154962 -0.8022458 0.17206767 1.9087676
C 6.1102495 4.330461 0.0830325 -0.057713844 -0.4178083 -0.46685055
N 2.999614 10.273961 4.318009 -0.33922106 -0.5865122 -1.2324728
N 0.64901686 8.280913 3.525823 0.32983017 0.007227247 -0.55626094
N 7.5844135 3.2881293 3.4744222 0.21289906 -0.4293289 -0.4469629
N -4.357023 1.2106692 8.735183 -0.6826829 -0.42391872 -1.0619702
N 2.6012444 -3.703336 8.620953 -0.42217565 -0.56368476 -0.72784454
N 0.48880482 -1.1632364 8.977426 0.8073437 -0.77022326 0.019152686
N -1.2697941 0.18511277 8.746875 -0.40642732 0.677948 0.16595949
N 5.5562234 5.902405 3.3092823 0.53408235 -1.1163204 -0.091409914
N 3.73451 7.1893644 3.2241027 0.63385797 0.42050824 -0.21622187
N 7.6375337 1.3473159 4.567999 -0.80439246 0.078384474 1.3498716
N -1.1523033 7.5252376 4.602969 -1.2089744 -0.3673064 -0.99105847
N -2.3726463 8.381088 7.5589347 0.4555792 -0.41619122 -0.5427396
N 8.708904 0.60511357 7.5543966 -0.9762455 0.042396154 1.4772089
N -4.371697 7.022968 5.377208 0.25864062 -1.9376347 -0.9024872
N 5.5103803 -0.015602518 6.776961 1.1303712 -0.7613425 0.3725511
N 7.9824862 -1.81974 5.338518 0.29026413 1.2800812 0.55285364
N -2.002155 5.1877003 6.818986 -0.013011866 0.9352935 -0.48265764
N 2.5169659 9.344172 1.1023346 0.15940516 0.76196134 1.0731174
N -2.3609877 2.3220632 11.046874 -0.26560935 0.81926006 -0.3098938
N 8.030724 5.590627 1.0679176 0.9606703 0.46332613 0.8682175
N 2.971901 -1.4796247 10.992385 -0.12615901 0.19462107 0.5124019
N 3.7004108 -0.7838826 7.8500056 0.123653114 0.2560122 -0.24528019
N 8.695167 6.3312783 4.2490816 0.04862924 -1.1797243 0.22786866
N -2.0046012 3.269604 7.9150195 0.82165444 -1.5595759 0.20392327
138
energy=-868.0303344726562 config_type=nep2xyz pbc="T T T" virial="-0.7944809794425964 0.9748566746711732 -0.9946097731590272 0.9748566746711732 0.04104219749569893 1.4856388568878176 -0.9946097731590272 1.4856388568878176 -13.27740478515625" Lattice="14.8951397 -8.81224809e-16 5.73441835e-16 -4.96504736 14.0434504 -5.18064239e-15 -4.96505356 -7.0217433 12.1619806" Properties=species:S:1:pos:R:3:force:R:3
Zn 2.5405524 8.787569 3.04264 -0.32500753 -0.23726258 -0.056135498
Zn 7.4898014 5.2463145 3.0609941 0.03787801 0.2569943 -0.15854542
Zn -2.4801943 1.763747 9.147998 -0.43393022 -0.26804385 -0.3096307
Zn 2.46001 -1.7437625 9.120106 -0.28482163 -0.2100176 -0.6360042
Zn 7.4297595 0.045364704 6.1250257 0.27291077 -0.29215655 -0.51993483
Zn -2.461364 7.0492663 6.0742354 0.14699882 -0.5285222 -0.11699332
H 4.74978 9.425797 5.091269 -0.05170801 0.5088776 0.18203355
H -0.30723986 8.591937 1.5872939 0.300235 -0.0071344194 -0.31683898
H 8.12689 2.491019 1.5333966 0.07733796 -0.16722988 0.39474386
H -5.3455024 1.4262297 10.66677 0.12436029 -0.07486547 -0.65785253
H 3.2133114 -4.4731393 10.551386 -0.5055266 -0.17090462 -0.9416322
H -0.45916575 -2.9767485 8.323525 -0.021894561 0.20217143 -0.09836398
H -2.6566281 -1.3750914 8.090706 0.16115436 0.33700266 -0.028020436
H 4.52084 4.0902624 4.0191197 0.14152583 0.03632213 0.013596499
H 2.3153746 5.75012 3.9570723 0.37795419 -0.16196176 -0.14302431
H 8.242179 0.089150056 2.9714985 -0.36443958 0.6736874 0.19363286
H -2.4822454 7.666615 2.8869894 -0.17336035 -0.23064452 0.05683648
H -1.896332 7.033425 9.136717 -0.09246286 1.5836449 0.01851771
H 7.2722244 0.6624853 9.16179 0.092523865 0.12173157 0.2853626
H -5.322501 8.466116 6.6149783 -0.042791836 -0.39342046 -0.45396876
H 4.480422 1.6010233 5.645269 0.2612928 -1.3955613 0.97224724
H 9.797735 -2.1396263 6.488699 -0.1482404 0.042855207 -0.41229492
H -0.33855075 4.8729506 5.609496 0.762875 -0.099770345 -0.5203524
H 2.9721544 11.388003 1.4776672 0.04246127 -0.31003845 -0.76367426
H -2.04806 4.46931 10.797428 0.2669001 -0.13472046 0.30363047
H 9.881905 6.7189555 1.2144977 -0.11555786 -0.038303394 0.046244524
H 4.6854973 -0.25178662 10.620808 0.38200462 0.0038006546 -0.030696958
H 2.2702649 0.55102366 6.9758186 0.08059568 0.17912416 -0.21950437
H 7.2348056 7.5914474 5.2695093 0.81864244 0.03105917 -0.03554727
H -0.26762107 2.357414 6.983034 -0.19524471 0.29740918 0.08681621
H 1.0406547 11.657644 2.7600029 -0.08384761 -0.3295055 -0.31517762
H 1.9275182 7.626104 6.0387826 1.2895215 -0.03584887 -0.37826133
H 6.3644185 4.2558017 5.7926207 0.12393245 -0.4896795 -0.19797178
H -3.1238685 0.25355697 6.39951 -0.16353317 0.17334963 -0.06266263
H 2.0073364 -2.59364 6.209656 -0.4182913 0.27726966 0.097166345
H 1.7951884 1.3575807 9.245719 0.120426305 -0.015056507 -0.11966353
H 0.29649144 2.1198025 9.785356 -0.3848606 0.80857295 -0.19928458
H 6.960809 8.011351 2.8065488 1.022045 0.32938546 0.4641733
H 5.6058393 9.187273 2.571547 0.12796578 0.17196044 0.16255158
H 6.5546412 2.7424366 6.704535 -0.04300529 -0.26623473 -0.17732993
H 0.41538298 7.1839447 6.7291174 -0.010817001 -0.19126774 0.0006104518
H -3.778898 9.935048 5.555686 1.0745983 0.5372983 0.6520243
H 10.299633 0.31399384 5.3542123 0.3796235 0.5793386 1.1145805
H -3.0718746 5.073949 3.7444758 0.17166527 0.38357916 -0.036371004
H 6.8680634 -1.6962899 8.567672 -0.21434882 -0.2610631 -0.12412618
H 6.1611385 -0.96748954 3.7447653 -0.22595488 -0.17668845 0.21308704
H -3.8926108 5.768741 8.898749 0.16467868 0.37040362 0.19103336
H 1.4530203 6.9259243 0.7647794 0.12520131 -0.14164074 0.3728183
H -3.2815292 -0.23187271 11.227012 0.30908832 0.37469736 0.02377064
H 6.219228 3.477197 0.7874705 0.1264598 0.26633915 0.18483031
H 0.91837215 -3.220719 11.282407 0.12232427 0.18707778 -0.31484336
H 5.333749 -2.2687547 9.294695 0.12515323 0.003022109 -0.12376671
H 10.309607 4.7043333 2.8492844 0.33758467 0.37890664 0.62203866
H -4.0908837 4.046267 9.262609 -0.11922134 0.030886572 0.03138944
H 5.128477 -2.3330858 4.277404 -0.575506 -0.07174803 0.29432005
H 0.7237734 8.846074 6.541636 0.27882358 0.5088792 -0.08375183
H 7.919896 3.800224 6.40588 0.049705476 -0.17014104 -0.06813703
H -3.7885127 1.8428415 5.931201 -0.03344631 -0.3454192 -0.015037014
H -1.9729061 10.278802 5.422016 -0.5064679 -0.2604736 0.107005976
H 1.0367097 0.95761585 10.77514 0.34980866 -0.36887407 0.9147647
H 6.101666 8.0446205 1.3111982 -0.19261524 -0.05844323 -0.092955984
H 10.62787 4.031023 4.426492 -0.13276891 -0.008472489 0.24563469
H 5.815607 -2.8904166 7.697475 0.18755129 0.09660158 0.10929545
H -4.7467394 4.761641 7.7656217 0.21082877 -0.11985269 0.13431798
H 3.076931 6.6513186 0.11884374 0.8195858 -0.5268963 0.25106433
H 5.315278 4.9361796 0.33228776 -0.61027867 0.09272666 0.24191754
C 2.2874646 11.433173 4.482655 1.7237289 0.5345955 1.4629037
C 0.15603384 7.822018 4.713874 1.2173398 0.7398112 -0.66255933
C 7.3625665 2.6573956 4.6708617 -0.03518549 2.6352115 -0.56836694
C -4.880254 0.86064917 7.4977365 -0.8518753 -0.19825137 -1.1002767
C -2.5635095 9.728211 7.401468 0.20424165 -0.8137215 0.37049848
C 0.008598019 0.118243545 9.124522 0.77869916 -0.49684542 -0.10027643
C 5.080315 7.109801 3.0152495 0.2878733 -0.10344524 -0.38578463
C -4.8557134 6.0865417 4.4851913 -1.0805324 0.9848738 -0.038918287
C 5.074296 -0.8836411 7.6953874 -0.47084075 0.0057735452 0.030892441
C -2.6301188 4.411143 7.7955127 1.1531534 1.1486315 -1.7277002
C -2.5982919 1.6194143 12.133574 0.5348571 -0.033231627 -0.56255984
C 2.4089694 -1.8695203 12.126908 -0.50488055 -0.3693023 1.2834387
C 4.095051 10.307711 5.0840826 0.09755336 0.22778139 0.14663516
C -0.36398858 8.200694 2.5875902 -0.21450683 0.053589318 0.9170786
C 7.9245515 2.2867172 2.5919185 0.4452987 -0.09132743 -0.47040612
C -5.4453144 1.1790843 9.595995 -0.84236556 0.26645255 -0.2531341
C 2.8907974 -4.7111363 9.506243 0.79714894 -0.057611447 1.3311837
C -0.5579683 -1.9034275 8.4880085 0.3311729 0.01170153 -0.19720563
C -1.6359456 -1.0784551 8.341729 -0.72597206 0.31085175 0.39759234
C 4.4631314 5.1360574 3.7317398 0.54801893 -0.6034455 0.05880856
C 3.3591952 5.9226837 3.66981 -0.9655554 0.9935436 0.08239024
C 7.9309573 1.1034801 3.293285 0.34541237 -1.0002197 -0.62593824
C -1.4680746 7.7431107 3.2535994 -0.44123492 -0.0550832 -0.08973072
C -2.070714 8.119895 8.861774 -0.088599704 -1.0517468 -0.8847598
C 8.308577 0.8334371 8.8865 0.4928753 -0.42947373 -0.49798664
C -5.448066 7.7109513 5.8186197 0.6783577 0.77396816 1.0037968
C 4.4464955 0.72676307 6.383223 0.150385 1.7035127 -1.9618142
C 9.118967 -2.4838617 5.70014 -0.50176877 -1.1056054 0.29033855
C -0.91971314 4.450538 6.3961577 0.014836045 -1.5933129 0.18423343
C 2.8377738 10.605773 0.70332533 0.2670563 1.7944925 0.5662538
C -2.1092348 3.627524 11.492395 -0.057823863 0.8237803 -0.53148943
C 9.131368 6.2377324 0.589969 1.0335664 1.144221 -0.8562591
C 4.114584 -0.7922011 11.358817 0.052782107 0.4482502 0.80648243
C 3.3140476 0.25775212 6.98372 0.74962014 -0.6190325 1.3693779
C 8.305027 7.3248014 5.1752176 0.29211012 -0.94154125 -0.8913258
C -0.9305363 3.2244685 7.0633802 0.41735637 0.44834518 -0.01790976
C 6.0578775 -2.064151 3.7973366 0.40222523 0.17523699 -0.4186684
C 0.90323484 7.893368 6.0462074 -2.3248951 -0.58043367 -0.35068527
C 7.018548 3.364788 5.9338326 0.056547187 1.215041 0.32655734
C -4.0654554 0.80987865 6.233128 -0.1890701 -0.20874639 -0.6181154
C -2.8657763 10.372398 6.0880446 0.06282066 -0.19832805 -0.5828503
C 0.8394448 1.1963547 9.749754 -0.35511926 -0.32439807 -0.64801943
C 5.9922204 8.182546 2.3953788 -1.6465695 -1.0235794 0.10116166
C 10.743754 4.9631205 3.854347 -0.018446578 -1.0565445 -1.0564873
C 5.8258967 -1.9973508 8.347449 0.21853563 0.24109684 0.07933186
C -3.885765 4.770788 8.467757 -0.7931243 -0.04543833 -0.12797472
C -2.8004718 0.17199941 12.141043 -1.5002666 -0.69684196 -0.5575751
C 6.145931 4.2964497 0.057823233 0.17606016 -0.0012755208 -0.11713366
N 2.9402099 10.244027 4.3386 -0.28522095 0.61195475 -0.6419778
N 0.65109086 8.265185 3.5118093 0.7850322 -0.1189616 0.33825555
N 7.6170135 3.299846 3.4546418 -0.8369496 -0.41560754 1.3449053
N -4.4126196 1.2457426 8.6767235 1.1509664 -0.017081002 1.4145309
N 2.607769 -3.722465 8.597723 -0.36904597 1.0152868 0.07650594
N 0.49625534 -1.1417118 8.93506 0.5571417 0.23319475 0.22853176
N -1.2831273 0.21501872 8.764508 -0.19884822 -0.9088135 -0.11085638
N 5.5697737 5.863475 3.3303332 -0.47871986 0.7750659 -0.31619418
N 3.730507 7.1861672 3.2198997 1.047989 -0.21359763 0.001448363
N 7.559115 1.3726977 4.592556 0.3049171 -1.9364359 -0.11872992
N -1.1305375 7.492267 4.5631375 -1.130461 -0.2809681 0.78703594
N -2.3783169 8.393339 7.5296874 -0.105646335 -0.45223516 -0.011783552
N 8.680699 0.6000629 7.558782 0.09577507 0.17196509 0.6252899
N -4.349955 6.9633985 5.38066 -0.66181695 0.014457669 0.22260925
N 5.562878 -0.0025357748 6.7762733 -1.0181944 -0.05637219 0.5145935
N 7.9608946 -1.8118885 5.370792 -0.23524001 0.097123876 -0.6100144
N -1.9817358 5.1499686 6.800006 -2.165674 1.3661194 1.5076509
N 2.54217 9.350675 1.0983678 -0.22860566 -0.6726695 0.47657692
N -2.3860466 2.371052 11.017358 -0.401895 -0.339137 0.90348953
N 8.042276 5.6189694 1.0900877 -1.0128503 -1.4656372 -0.713168
N 2.9791431 -1.4655985 10.986609 0.3457958 -0.24292192 0.3726769
N 3.7445846 -0.72754586 7.8858666 -0.64268667 -0.15375566 -0.3727098
N 8.710474 6.3172803 4.2814565 -0.41367272 -0.3769035 0.23292285
N -1.9840437 3.2629244 7.9633927 0.5826416 -0.90316164 -0.31233725
138
energy=-867.6417236328125 config_type=nep2xyz pbc="T T T" virial="2.7541775703430176 2.616101026535034 1.9947383403778076 2.616101026535034 -2.39140248298645 0.734722912311554 1.9947383403778076 0.734722912311554 6.302713871002197" Lattice="14.8951397 -8.81224809e-16 5.73441835e-16 -4.96504736 14.0434504 -5.18064239e-15 -4.96505356 -7.0217433 12.1619806" Properties=species:S:1:pos:R:3:force:R:3
Zn 2.5264137 8.787237 3.0036 0.014543364 -0.35581532 0.5231333
Zn 7.495027 5.278752 3.0702553 -0.09256179 -0.00482382 -0.5944109
Zn -2.5118344 1.7447115 9.148701 0.111406006 0.16018209 -0.30033726
Zn 2.4401147 -1.7311425 9.0995245 -0.1922273 -0.43351802 -0.5538967
Zn 7.4539275 0.023076085 6.1346235 0.0022008398 -0.022305727 -0.65643364
Zn -2.4944992 7.042271 6.110627 0.48088294 -0.63931036 -0.26929808
H 4.7259126 9.427307 5.1346855 0.36126444 0.05091462 0.18702655
H -0.29054573 8.601318 1.642531 -0.013167606 -0.10905105 -0.13807277
H 8.232759 2.4882298 1.5452292 0.04526833 0.13860898 -0.015718611
H -5.3380837 1.3364265 10.646736 0.0647013 0.18066503 -0.09879293
H 2.9827182 -4.5821385 10.568499 0.2830194 0.5356725 1.1828439
H -0.44928366 -2.9103892 8.261196 0.01868595 -0.6702419 -0.08909343
H -2.699227 -1.2566366 8.187272 -0.056920193 -0.0682307 -0.30523708
H 4.56011 4.049183 4.0306487 0.03634844 0.71242875 -0.15915148
H 2.342146 5.7353597 4.042567 0.6608417 0.066877104 -0.46475893
H 8.270835 0.12521483 2.936396 0.044405233 -0.199938 0.010577728
H -2.5551267 7.625786 3.0002215 0.5126332 0.022895021 0.021695692
H -1.8429619 7.126986 9.141148 0.034602035 -0.08057845 0.22285461
H 7.397371 0.53207266 9.271037 -1.4037569 -0.18305027 0.24765073
H -5.385237 8.515509 6.570929 0.030568251 -0.8307921 -0.42753193
H 4.552277 1.6331527 5.7721963 0.40878245 0.60229963 -0.8120046
H 9.879028 -2.1265504 6.4022794 -0.67503107 -0.30920148 -0.5045984
H -0.37458 4.72345 5.4625273 -0.14119647 0.09340795 0.44451442
H 2.8439062 11.460214 1.4193108 0.17150562 -0.12962732 -0.33582023
H -2.1239324 4.511364 10.77835 0.23283821 0.0018418012 0.22009149
H 9.787624 6.7892065 1.189759 0.0603953 -0.15777141 0.17934719
H 4.764709 -0.3407399 10.685361 0.118717715 -0.15244968 -0.43981004
H 2.41163 0.7800441 6.816653 -1.1230959 -0.16105899 0.47009748
H 7.312844 7.5984826 5.326066 -0.17005597 -0.08169089 -0.24478208
H -0.30189645 2.428759 6.8203554 -0.010113552 -0.36469623 0.38228446
H 0.8131259 11.42596 2.912266 0.44981316 0.28863716 0.036044974
H 1.9285249 7.5914474 5.9581976 0.6449368 0.32455948 0.18606417
H 6.3720965 4.3448753 5.7219467 0.3473723 -0.1370883 -0.0903457
H -3.1298237 0.26947215 6.298895 0.6373343 -0.79987484 0.55461603
H 2.0806477 -2.4798234 6.2427044 0.0391209 -1.1514326 0.047641356
H 1.7699071 1.4015268 9.210828 -0.11373664 0.038470704 -0.19026576
H 0.222541 2.1824765 9.776401 1.0402092 -1.449411 0.18384477
H 6.960658 8.15366 2.7276049 0.10684301 -0.105119385 0.1713367
H 5.5140715 9.164692 2.507615 0.031916272 -0.365361 0.09281491
H 6.5887814 2.8212867 6.609831 -0.19350909 -0.24093337 0.19736052
H 0.39589337 7.1520753 6.7016115 0.13734093 0.012357482 0.1492995
H -3.8338456 10.09412 5.6965375 0.42686126 0.31710115 0.41329998
H 10.229826 0.37252182 5.4404488 0.3679773 0.14355654 0.39541236
H -3.1016967 5.337629 3.6464543 1.1459998 -0.19764142 -0.054520577
H 6.8090696 -1.685402 8.729521 0.03447553 -0.049626045 -0.37444708
H 6.1266556 -0.9677807 3.6781669 0.009621998 -0.6606729 -0.17625742
H -3.754452 5.770601 8.9278145 -0.1611123 0.27189773 0.051483084
H 1.4988136 6.8993173 0.8074772 0.13866909 -0.17308669 0.016678061
H -3.2143726 -0.19264328 11.228666 0.17840916 -0.08343656 0.02005708
H 6.20572 3.5032015 0.8687657 0.07594211 0.12578839 0.0699326
H 0.9718917 -3.339163 11.317119 0.10763462 -0.043475643 -0.40906602
H 5.2631793 -2.3241353 9.152363 -1.1931456 -0.67057014 1.9833429
H 10.356769 4.7039413 2.8488722 0.095259845 0.26342106 0.37950897
H -4.0756254 4.1020327 9.262842 -0.48471907 -0.4579819 0.18538034
H 5.156818 -2.2302473 4.4811163 0.5054952 0.16937849 -0.17105013
H 0.706553 8.886782 6.5306582 0.5513335 -0.41448745 -0.30008823
H 8.018347 3.8035095 6.3300066 -0.6447219 0.30234084 0.08249524
H -3.7253478 1.7923702 5.8834486 -0.36508968 -0.012940166 0.34818777
H -2.1446993 10.201061 5.303257 0.11378444 0.084516086 0.2548245
H 1.1684859 0.9372468 10.733149 0.08507987 -0.3787703 1.4795504
H 5.983759 7.994607 1.2578024 -0.013165162 0.024364768 0.48644108
H -4.140633 4.080526 4.444704 0.32004106 -0.057145897 0.20802179
H 5.8460393 -2.8796785 7.6625504 0.44832182 1.0980425 0.53259283
H -4.7273707 4.8989606 7.768673 -0.61088645 -0.17014381 -0.25091916
H 3.1197944 6.579202 0.17702174 0.69650424 -0.200684 0.08488751
H 5.182939 4.8011007 0.25903222 0.16452444 0.17682932 0.05162326
C 7.2948923 -2.5925806 4.5140085 0.4290457 -0.10466717 -0.31396794
C 0.1876236 7.804952 4.708946 -0.35554695 0.14240497 0.9744518
C 7.429615 2.7549655 4.6499047 -0.7928613 -2.2069488 0.7639959
C -4.879774 0.8621764 7.4818816 -0.088869095 0.10841148 0.81269604
C -2.5198379 9.708916 7.389862 -0.29170975 0.3857727 -0.25587222
C 0.014609028 0.117664106 9.108464 0.9224107 1.0731769 0.36232066
C 5.0829988 7.0696917 3.0013351 0.24515876 0.84615135 -0.9850475
C -4.857152 6.134081 4.4830494 0.5577027 -1.5723902 -0.67268646
C 5.037496 -0.8441175 7.691912 0.90926075 -1.4462149 1.5886828
C -2.6511385 4.419335 7.7563376 1.2813315 0.13233732 -0.796319
C 2.3939915 8.657572 0.011655043 0.81702566 -2.0573237 -2.3406026
C 2.3816433 -1.9071406 12.132245 -0.56793815 -0.87992346 -0.1970669
C 4.076127 10.290593 5.1171575 0.84292096 -0.26912382 -0.4136604
C -0.39328596 8.222527 2.6519327 -0.9980872 -0.20641667 -0.26162913
C 8.009759 2.295916 2.5868719 -0.37407455 0.8596978 0.60424626
C -5.4494 1.1814902 9.577433 0.10360016 -0.29261625 -0.6626332
C 2.8879678 -4.7377195 9.5352545 -0.38525957 0.9045272 -2.6711044
C -0.55491436 -1.875598 8.496163 -0.9503699 0.96153295 -0.30974862
C -1.6579257 -1.0240397 8.365773 0.47985324 -1.2155662 -0.002046032
C 4.4800043 5.1123457 3.734763 0.119142994 -0.6029811 0.026972149
C 3.3718016 5.924807 3.6739824 -0.95959526 -0.70644826 0.5496337
C 8.023952 1.1189321 3.2774844 -0.4517355 0.48727039 1.0103129
C -1.5093852 7.746048 3.3183951 -0.05445828 0.007115859 0.27633673
C -2.0444074 8.144469 8.833141 -0.34224385 -0.8233253 -0.11793641
C 8.336016 0.766304 8.866229 1.4206728 0.31833154 0.5862281
C -5.453155 7.667935 5.8496337 -0.22005957 1.6278995 1.2567537
C 4.504023 0.7581756 6.3670406 -1.131674 -0.7609152 1.6591884
C 9.110722 -2.5192652 5.6977935 0.9957965 0.30565694 1.9189373
C -0.9752903 4.4332223 6.3334637 0.30442062 -0.23952612 -0.48216546
C 2.7949193 10.664656 0.66890126 -0.17023286 -0.0005559797 2.2711244
C -2.163062 3.688159 11.487844 -0.3198847 -1.0084735 -1.3261138
C 9.106004 6.2106376 0.5768663 1.01302 0.8690444 -1.3670639
C 4.113973 -0.88680524 11.34872 0.6523547 0.8199735 0.98915786
C 3.3442829 0.32009625 7.0392675 2.372282 0.9031779 -1.3755859
C 8.324925 7.2446084 5.179912 -0.05968183 0.630267 0.41305164
C -0.9774125 3.247638 7.0218296 1.2540338 -0.15658617 -0.9062248
C 6.060745 -2.0713575 3.8309379 -0.854397 -0.34485978 0.6132718
C 0.89664567 7.89177 6.061545 -1.4041817 -0.3189359 -0.84217757
C 7.0448437 3.4842455 5.880583 0.9004076 0.17496239 0.46532384
C -4.05721 0.8037252 6.2733793 -0.81418437 0.64521474 -2.2122798
C -2.8517787 10.437953 6.1197705 -0.49286425 0.31154117 -0.5543147
C 0.838702 1.1965058 9.763108 -1.3811171 1.8634442 -1.89495
C 5.9309325 8.147449 2.3649535 -0.6049197 0.15061419 -0.56172174
C -4.091801 4.9822235 3.82871 -1.4172375 0.88815814 -0.17677966
C 5.8169174 -1.966351 8.353785 0.2047958 -0.07317152 -2.343574
C -3.8995368 4.7938566 8.453147 0.9273441 0.6953951 0.36558032
C 2.2188923 7.1431413 0.011195471 -1.3575243 1.1456621 -0.2871165
C 6.117413 4.248756 0.06537791 -0.043160293 0.13549842 0.20347913
N 2.9957993 10.254899 4.3037543 -1.8780444 0.93748444 -0.45281428
N 0.65107155 8.236466 3.5191367 0.90736717 0.18218859 0.4069072
N 7.5989084 3.3259966 3.485595 0.9274491 -0.2475972 -2.4124901
N -4.3858166 1.243223 8.678739 -0.47384962 -0.14581445 0.6811561
N 2.600951 -3.724303 8.5575285 0.15767854 0.4852132 2.3653245
N 0.50001484 -1.1171223 8.938915 0.33827847 -0.61255246 -0.09251175
N -1.2698367 0.2356489 8.714563 0.06010732 0.18864448 0.90598685
N 5.5599937 5.8538127 3.2792847 0.4055831 -0.69179153 0.45420077
N 3.7434754 7.136372 3.171328 -0.004427375 1.1232024 0.4129205
N 7.6236916 1.3798208 4.5988617 0.21909864 0.6810814 -0.30776432
N -1.1284056 7.471447 4.6313977 -0.31920534 0.26448584 -0.4660843
N -2.377697 8.378529 7.5207686 0.4566596 -0.16121449 -0.35786247
N 8.687323 0.562407 7.5639367 0.6858715 0.08762389 -0.23739102
N -4.3590875 6.969026 5.429235 -0.25962186 -0.4789822 -0.7819925
N 5.583751 0.0328242 6.855413 -0.57107884 0.510263 -1.1172347
N 7.9765177 -1.8155395 5.400876 -0.19605061 0.07320741 -0.77517974
N -2.0082774 5.171874 6.809891 -1.3127708 1.0307561 0.12712662
N 2.5604932 9.333331 1.1154956 0.14849833 2.666429 0.19155844
N -2.3835564 2.3790176 11.022783 -0.47787052 0.0021227382 1.3273556
N 8.031024 5.56497 1.0389163 -1.366386 -0.79211795 1.6093
N 3.0088162 -1.5853353 10.970315 -0.21118616 0.055061705 0.43135285
N 3.7121985 -0.6843191 7.894218 -0.695637 -0.16110647 -0.19249833
N 8.7134075 6.280197 4.2954955 -0.23656163 -0.18043092 -0.12344794
N -1.9804572 3.253066 7.9204984 -1.1088352 -0.35544172 0.6945753
138
energy=-867.3270874023438 config_type=nep2xyz pbc="T T T" virial="-2.0066075325012207 2.9121272563934326 4.834674835205078 2.9121272563934326 -0.9478083252906799 0.6473877429962158 4.834674835205078 0.6473877429962158 4.869391441345215" Lattice="14.8951397 -8.81224809e-16 5.73441835e-16 -4.96504736 14.0434504 -5.18064239e-15 -4.96505356 -7.0217433 12.1619806" Properties=species:S:1:pos:R:3:force:R:3
Zn 2.551992 8.765755 3.021166 -0.32168007 0.047186673 0.30035198
Zn 7.484273 5.2846227 3.0208237 -0.17217822 0.015246405 0.36060923
Zn -2.5244129 1.7626549 9.10004 -0.116200596 0.09813961 0.47294798
Zn 2.4284332 -1.7525402 9.047255 0.15280122 0.07063378 0.40739423
Zn 7.5089297 0.028734032 6.127208 -0.612188 -0.009773651 -0.4044268
Zn -2.4973838 7.0314083 6.1014247 0.14651674 -0.4658717 -0.21899019
H 4.7786217 9.510177 5.270803 -0.3856786 -0.37627578 -0.3988341
H -0.34077576 8.559355 1.5933785 0.25065506 -0.3747551 1.1051913
H 8.260588 2.4409413 1.5599899 0.03224009 -0.026167998 0.36566472
H -5.4382625 1.4907598 10.637871 0.14537252 -0.13679038 0.12215382
H 3.2091036 -4.5714655 10.485765 -0.21231943 0.44312516 0.44513077
H -0.38439205 -2.9311032 8.312663 -0.4241299 0.092992306 -0.08700223
H -2.6981282 -1.3097055 8.154267 1.2072698 0.3995816 0.057075888
H 4.443363 4.0300107 3.9801545 0.47514507 -0.2783618 0.13728085
H 2.2974694 5.714526 3.8015838 0.4497285 -0.051630888 0.24718148
H 8.43796 0.11372677 3.0048358 -0.82553804 1.4394242 0.7421556
H -2.4952638 7.4550986 3.034249 0.32035846 0.3188652 -0.45683688
H -1.9102467 7.170496 9.079413 0.54321927 -1.9400141 0.8306775
H 7.3693266 0.41802147 9.265932 -0.03178993 0.16786173 -0.18759124
H -5.26594 8.386464 6.7501736 -0.19369683 -0.7846136 -0.96583647