114
Lattice="-3.287597 0.0 12.100429 0.0 -14.094968 0.0 14.682986 7.047484 0.0" Properties=species:S:1:pos:R:3:initial_magmoms:R:1 material_id=mp-1199998 energy_per_atom_eV=-7.895463299824561 total_energy_eV=-900.08281618 functional="GGA (PBE)" comment="MP_ID=mp-1199998 Thermo_Type=GGA_GGA+U Total_Energy=-900.0828_eV" pbc="T T T"
Si       0.85604791     -12.53746699       2.02492209      -0.00000000
Si       0.85604791      -1.55750101       2.02492209      -0.00000000
Si      10.53934109       5.48998299      10.07550691      -0.00000000
Si      10.53934109      -5.48998299      10.07550691      -0.00000000
Si      -1.28358563     -12.53246327      11.15099304       0.00000000
Si      -1.28358563      -1.56249063      11.15099304       0.00000000
Si      12.67897463       5.48497927       0.94943596       0.00000000
Si      12.67897463      -5.48499337       0.94943596       0.00000000
Si       3.49337415      -9.93152588       9.15601951       0.00000000
Si       3.49337415      -4.16345622       9.15601951       0.00000000
Si       7.90201485       2.88404188       2.94440949       0.00000000
Si       7.90201485      -2.88402778       2.94440949       0.00000000
Si       4.19368286      -9.94651588       6.06736081       0.00000000
Si       4.19368286      -4.14845212       6.06736081       0.00000000
Si       7.20170614       2.89903188       6.03306819       0.00000000
Si       7.20170614      -2.89903188       6.03306819       0.00000000
Si       5.19998404      -9.93824918       1.72653761       0.00000000
Si       5.19998404      -4.15671882       1.72653761       0.00000000
Si       6.19540496       2.89076518      10.37389139       0.00000000
Si       6.19540496      -2.89076518      10.37389139       0.00000000
Si       1.52597342     -11.34081830      11.08755049       0.00000000
Si       1.52597342      -2.75414970      11.08755049       0.00000000
Si       9.86941558       4.29333430       1.01287851       0.00000000
Si       9.86941558      -4.29333430       1.01287851       0.00000000
Si       3.11151640     -11.34723856       3.53303486       0.00000000
Si       3.11151640      -2.74772944       3.53303486       0.00000000
Si       8.28387260       4.29975456       8.56739414       0.00000000
Si       8.28387260      -4.29975456       8.56739414       0.00000000
Si       6.15491083      -7.04748400       2.60168904       0.00000000
Si       5.24047817       0.00000000       9.49873996       0.00000000
Si       7.48577378      -0.00000705       2.08942948       0.00000000
Si       3.90961522      -7.04747695      10.01099952       0.00000000
Si       4.72990860       0.00000000       3.71795361       0.00000000
Si       6.66548040      -7.04748400       8.38247539       0.00000000
Si       6.21082794      -0.00000705       6.53084354       0.00000000
Si       5.18456106      -7.04747695       5.56958546       0.00000000
Si       2.97939404       0.00000000      11.42349470       0.00000000
Si       8.41599496      -7.04748400       0.67693430       0.00000000
O        1.54122296     -11.56999543       3.14492570       0.00000000
O        1.54122296      -2.52497257       3.14492570       0.00000000
O        9.85416604       4.52251143       8.95550330       0.00000000
O        9.85416604      -4.52251143       8.95550330       0.00000000
O       13.94352769      -5.16968894       1.93421727       0.00000000
O       13.94352769       5.16968894       1.93421727       0.00000000
O       -2.54813869      -1.87779506      10.16621173       0.00000000
O       -2.54813869     -12.21717294      10.16621173       0.00000000
O        1.08973406       0.00000705       2.45556426      -0.00000000
O       10.30565494      -7.04749105       9.64486474      -0.00000000
O        1.57124215     -12.24451013       0.59300572      -0.00000000
O        1.57124215      -1.85045787       0.59300572      -0.00000000
O        9.82414685       5.19702613      11.50742328      -0.00000000
O        9.82414685      -5.19702613      11.50742328      -0.00000000
O       -0.05972787     -11.53758405      10.75561152       0.00000000
O       -0.05972787      -2.55736985      10.75561152       0.00000000
O       11.45511687       4.49010005       1.34481748       0.00000000
O       11.45511687      -4.49011415       1.34481748       0.00000000
O       -0.82373159       0.00000000      10.98919820      -0.00000000
O       12.21912059      -7.04748400       1.11123080      -0.00000000
O        7.72727540      -7.04748400       2.15456609      -0.00000000
O        3.66811360       0.00000000       9.94586291      -0.00000000
O        5.42563698      -8.35873887       1.99100459      -0.00000000
O        5.42563698      -5.73622913       1.99100459      -0.00000000
O        5.96975202       1.31125487      10.10942441      -0.00000000
O        5.96975202      -1.31125487      10.10942441      -0.00000000
O        6.10155496      -7.04749105       4.22636524       0.00000000
O        5.29383404       0.00000705       7.87406376       0.00000000
O        8.26878757      -1.33348969       2.59775640      -0.00000000
O        8.26878757       1.33348969       2.59775640      -0.00000000
O        3.12660143      -5.71399431       9.50267260      -0.00000000
O        3.12660143      -8.38097369       9.50267260      -0.00000000
O        5.97438357       0.00000705       2.68794090      -0.00000000
O        5.42100543      -7.04749105       9.41248810      -0.00000000
O        7.42952756      -0.00000705       0.46321652      -0.00000000
O        3.96586144      -7.04747695      11.63721248      -0.00000000
O        5.18801128       0.00000000       5.27094687      -0.00000000
O        6.20737772      -7.04748400       6.82948213      -0.00000000
O        3.85782468      -1.31828826       3.42526844      -0.00000000
O        3.85782468       1.31828826       3.42526844      -0.00000000
O        7.53756761      -5.72919574       8.67514846      -0.00000000
O        7.53756761      -8.36577226       8.67514846      -0.00000000
O        7.15165340      -1.32700600       6.47248317      -0.00000000
O        7.15165340       1.32702009       6.47248317      -0.00000000
O        4.24373560      -5.72047800       5.62794583      -0.00000000
O        4.24373560      -8.37450409       5.62794583      -0.00000000
O        2.31636260     -10.88868696       9.74106315       0.00000000
O        2.31636260      -3.20626694       9.74106315       0.00000000
O        9.07902640       3.84120296       2.35936585       0.00000000
O        9.07902640      -3.84121706       2.35936585       0.00000000
O        4.94681012     -10.31858779       9.80000434      -0.00000000
O        4.94681012      -3.77639430       9.80000434      -0.00000000
O        6.44857888       3.27110379       2.30042466      -0.00000000
O        6.44857888      -3.27108970       2.30042466      -0.00000000
O        3.55988422     -10.11910171       7.54577912       0.00000000
O        3.55988422      -3.97586629       7.54577912       0.00000000
O        7.83550478       3.07161771       4.55464988       0.00000000
O        7.83550478      -3.07161771       4.55464988       0.00000000
O        3.22438509     -10.74243053       5.03304034       0.00000000
O        3.22438509      -3.35253747       5.03304034       0.00000000
O        8.17100391       3.69494653       7.06738866       0.00000000
O        8.17100391      -3.69494653       7.06738866       0.00000000
O        5.69769450       3.52374200       6.05021450      -0.00000000
O        5.69769450      -3.52374200       6.05021450      -0.00000000
O        3.80943416     -10.35055518       2.45637499      -0.00000000
O        3.80943416      -3.74441282       2.45637499      -0.00000000
O        7.58595484       3.30307118       9.64405401      -0.00000000
O        7.58595484      -3.30307118       9.64405401      -0.00000000
O        5.05515085     -10.20112738       0.12649788       0.00000000
O        5.05515085      -3.89384062       0.12649788       0.00000000
O        6.34023815       3.15364338      11.97393112       0.00000000
O        6.34023815      -3.15364338      11.97393112       0.00000000
O        2.06569627       1.32117068      11.62482164      -0.00000000
O        2.06569627      -1.32117068      11.62482164      -0.00000000
O        9.32969273      -8.36865468       0.47560736      -0.00000000
O        9.32969273      -5.72631332       0.47560736      -0.00000000
288
Lattice="0.0 -0.0037099 -13.60631566 0.0 -20.2411551 0.23106576 -20.47811106 0.0 0.0" Properties=species:S:1:pos:R:3:initial_magmoms:R:1 material_id=mp-1200292 energy_per_atom_eV=-7.905988411215278 total_energy_eV=-2276.92466243 functional="GGA (PBE)" comment="MP_ID=mp-1200292 Thermo_Type=GGA_GGA+U Total_Energy=-2276.9247_eV" pbc="T T T"
Si      -1.62829099     -11.24361272      -2.32001869       0.00000000
Si     -18.84982007      -9.00125228     -11.05523121       0.00000000
Si      -8.61076454      -1.12489012      -9.23870940       0.00000000
Si     -11.86734652     -19.11997488      -4.13654050       0.00000000
Si      -3.81361282     -10.74417486      -4.45515689       0.00000000
Si     -16.66449824      -9.50069014      -8.92009301       0.00000000
Si      -6.42544271      -0.62545226     -11.37384760       0.00000000
Si     -14.05266835     -19.61941274      -2.00140230       0.00000000
Si      -4.51509686     -11.38596118      -7.39875497       0.00000000
Si     -15.96301420      -8.85890382      -5.97649493       0.00000000
Si      -5.72395867      -1.26352868      -0.71113002       0.00000000
Si     -14.75415239     -18.98133632     -12.66411988       0.00000000
Si      -7.69968232     -11.38296387      -7.17385540       0.00000000
Si     -12.77842874      -8.86190113      -6.20139450       0.00000000
Si      -2.53937321      -1.26053137      -0.48623045       0.00000000
Si     -17.93873785     -18.98433363     -12.88901945       0.00000000
Si      -8.66685224     -10.68640200      -4.29047263       0.00000000
Si     -11.81125882      -9.55846300      -9.08477727       0.00000000
Si      -1.57220329      -0.56767940     -11.20916334       0.00000000
Si     -18.90590777     -19.67718560      -2.16608656       0.00000000
Si      -6.23188094     -11.25061336      -2.41212076       0.00000000
Si     -14.24623012      -8.99425164     -10.96312914       0.00000000
Si      -4.00717459      -1.13189076      -9.33081147       0.00000000
Si     -16.47093647     -19.11297424      -4.04443843       0.00000000
Si      -1.52625205      -6.65230789      -2.38217258       0.00000000
Si     -18.95185901     -13.59255711     -10.99307732       0.00000000
Si      -8.71280348     -16.77474039      -9.06979753       0.00000000
Si     -11.76530758      -3.47012461      -4.30545237       0.00000000
Si      -3.84715719      -7.56044061      -4.35146449      -0.00000000
Si     -16.63095387     -12.68442439      -9.02378541      -0.00000000
Si      -6.39189834     -17.68287311     -11.03908944      -0.00000000
Si     -14.08621272      -2.56199189      -2.33616046      -0.00000000
Si      -4.64615370      -6.56040362      -7.21556059       0.00000000
Si     -15.83195736     -13.68446138      -6.15968931       0.00000000
Si      -5.59290183     -16.67912622      -0.29686988       0.00000000
Si     -14.88520923      -3.56573878     -13.07838002       0.00000000
Si      -7.79963577      -6.55133910      -7.19444250       0.00000000
Si     -12.67847529     -13.69352590      -6.18080740       0.00000000
Si      -2.43941976     -16.67006170      -0.27575179       0.00000000
Si     -18.03869130      -3.57480330     -13.09949811       0.00000000
Si      -8.77549927      -7.50282928      -4.33378324      -0.00000000
Si     -11.70261179     -12.74203572      -9.04146666      -0.00000000
Si      -1.46355626     -17.62526178     -11.02140819      -0.00000000
Si     -19.01455480      -2.61960322      -2.35384171      -0.00000000
Si      -6.33192389      -6.77788890      -2.45212339      -0.00000000
Si     -14.14618717     -13.46697610     -10.92312651      -0.00000000
Si      -3.90713164     -16.90032140      -9.13974834      -0.00000000
Si     -16.57097942      -3.34454360      -4.23550156      -0.00000000
Si      -1.46748888     -19.08841881      -2.02968094       0.00000000
Si     -19.01062218      -1.15644619     -11.34556896       0.00000000
Si      -8.77156665      -8.96969621      -8.94837165       0.00000000
Si     -11.70654441     -11.27516879      -4.42687825       0.00000000
Si      -3.84324280     -19.69585771      -4.02047606       0.00000000
Si     -16.63486826      -0.54900729      -9.35477384       0.00000000
Si      -6.39581273      -9.57713511     -10.93916677       0.00000000
Si     -14.08229833     -10.66772989      -2.43608313       0.00000000
Si      -4.56620245     -19.00299126      -6.98533835       0.00000000
Si     -15.91190861      -1.24187374      -6.38991155       0.00000000
Si      -5.67285308      -8.88055876      -0.29771340       0.00000000
Si     -14.80525798     -11.36430624     -13.07753650       0.00000000
Si      -7.74845749     -18.93871567      -7.04914219       0.00000000
Si     -12.72965357      -1.30614933      -6.32610771       0.00000000
Si      -2.49059804      -8.81628317      -0.36151724       0.00000000
Si     -17.98751302     -11.42858183     -13.01373266       0.00000000
Si      -8.78609423     -19.69816902      -4.15099996       0.00000000
Si     -11.69201683      -0.54669598      -9.22424994       0.00000000
Si      -1.45296130      -9.57944642     -11.06969067       0.00000000
Si     -19.02514976     -10.66541858      -2.30555923       0.00000000
Si      -6.40167254     -18.98535074      -2.26727861       0.00000000
Si     -14.07643852      -1.25951426     -11.10797129       0.00000000
Si      -3.83738299      -8.86662814      -9.18596932       0.00000000
Si     -16.64072807     -11.37823686      -4.18928058       0.00000000
Si      -1.55897505      -3.48182163      -2.48599571       0.00000000
Si     -18.91913601     -16.76304337     -10.88925419       0.00000000
Si      -8.68008048     -13.60425413      -9.17362066       0.00000000
Si     -11.79803058      -6.64061087      -4.20162924       0.00000000
Si      -3.83611704      -2.66343796      -4.48129651       0.00000000
Si     -16.64199402     -17.58142704      -8.89395339       0.00000000
Si      -6.40293849     -12.78587046     -11.16892146       0.00000000
Si     -14.07517257      -7.45899454      -2.20632844       0.00000000
Si      -4.64918078      -3.42299867      -7.38648858       0.00000000
Si     -15.82893028     -16.82186633      -5.98876132       0.00000000
Si      -5.58987475     -13.54172127      -0.46779787       0.00000000
Si     -14.88823631      -6.70314373     -12.90745203       0.00000000
Si      -7.80404123      -3.44526493      -7.28890716       0.00000000
Si     -12.67406983     -16.79960007      -6.08634274       0.00000000
Si      -2.43501430     -13.56398753      -0.37021645       0.00000000
Si     -18.04309676      -6.68087747     -13.00503345       0.00000000
Si      -8.75400565      -2.64973126      -4.35748029       0.00000000
Si     -11.72410541     -17.59513374      -9.01776961      -0.00000000
Si      -1.48504988     -12.77216376     -11.04510524       0.00000000
Si     -18.99306118      -7.47270124      -2.33014466      -0.00000000
Si      -6.25639058      -3.65930530      -2.70784523       0.00000000
Si     -14.22172048     -16.58555970     -10.66740467       0.00000000
Si      -3.98266495     -13.78173780      -9.39547018       0.00000000
Si     -16.49544611      -6.46312720      -3.97977972       0.00000000
O       -2.50123437     -11.30918994      -3.68568097      -0.00000000
O      -17.97687669      -8.93567506      -9.68956893      -0.00000000
O       -7.73782116      -1.19046734     -10.60437168      -0.00000000
O      -12.74028990     -19.05439766      -2.77087822      -0.00000000
O       -3.88256958     -11.46067176      -5.90826455      -0.00000000
O      -16.59554148      -8.78419324      -7.46698535       0.00000000
O       -6.35648595      -1.34194916     -12.82695526      -0.00000000
O      -14.12162511     -18.90291584      -0.54829464       0.00000000
O       -6.11171825     -11.08641578      -7.30796309      -0.00000000
O      -14.36639281      -9.15844922      -6.06728681      -0.00000000
O       -4.12733728      -0.96398328      -0.62033814      -0.00000000
O      -16.35077378     -19.28088172     -12.75491176      -0.00000000
O       -8.12772603     -11.47689929      -5.60961282      -0.00000000
O      -12.35038503      -8.76796571      -7.76563708      -0.00000000
O       -2.11132950      -1.35817669     -12.52830353      -0.00000000
O      -18.36678156     -18.88668831      -0.84694637      -0.00000000
O       -7.71953216     -11.02021184      -3.01721421      -0.00000000
O      -12.75857890      -9.22465316     -10.35803569      -0.00000000
O       -2.51952337      -0.90148924      -9.93590492      -0.00000000
O      -17.95858769     -19.34337576      -3.43934498       0.00000000
O       -5.15712025     -11.08971309      -3.61106941      -0.00000000
O      -15.32099081      -9.15515191      -9.76418049      -0.00000000
O       -5.08193528      -0.97099049     -10.52976012      -0.00000000
O      -15.39617578     -19.27387451      -2.84548978      -0.00000000
O       -2.51827707      -7.01892518      -3.60651826      -0.00000000
O      -17.95983399     -13.22593982      -9.76873164      -0.00000000
O       -7.72077846     -17.14135768     -10.29414321      -0.00000000
O      -12.75733260      -3.10350732      -3.08110669      -0.00000000
O       -3.99593395      -6.74629698      -5.74359399      -0.00000000
O      -16.48217711     -13.49856802      -7.63165591      -0.00000000
O       -6.24312158     -16.86872948     -12.43121894      -0.00000000
O      -14.23498948      -3.37613552      -0.94403096      -0.00000000
O       -6.22443408      -6.96043362      -7.15610200      -0.00000000
O      -14.25367698     -13.28443138      -6.21914790      -0.00000000
O       -4.01462145     -17.07915622      -0.23741129      -0.00000000
O      -16.46348961      -3.16570878     -13.13783861      -0.00000000
O       -8.42457898      -6.70415456      -5.70424477      -0.00000000
O      -12.05353208     -13.54071044      -7.67100513      -0.00000000
O       -1.81447655     -16.82658706     -12.39186972      -0.00000000
O      -18.66363451      -3.41827794      -0.98338018      -0.00000000
O       -7.76874434      -7.06442978      -3.14740929      -0.00000000
O      -12.70936672     -13.18043522     -10.22784061      -0.00000000
O       -2.47031119     -17.18686228      -9.83503424      -0.00000000
O      -18.00779987      -3.05800272      -3.54021566      -0.00000000
O       -5.15357406      -7.33249968      -3.42010045      -0.00000000
O      -15.32453700     -12.91236532      -9.95514945      -0.00000000
O       -5.08548147     -17.45493218     -10.10772540      -0.00000000
O      -15.39262959      -2.78993282      -3.26752450      -0.00000000
O       -3.70663476      -9.14168361      -4.66863588      -0.00000000
O      -16.77147630     -11.10318139      -8.70661402      -0.00000000
O       -6.53242077     -19.26411611     -11.35626083      -0.00000000
O      -13.94569029      -0.98074889      -2.01898907      -0.00000000
O       -8.64142498      -9.09641973      -4.61346708      -0.00000000
O      -11.83668608     -11.14844527      -8.76178282      -0.00000000
O       -1.59763055     -19.21885223     -11.30109203      -0.00000000
O      -18.88048051      -1.02601277      -2.07415787      -0.00000000
O       -1.75359942     -12.65584019      -1.52758713      -0.00000000
O      -18.72451164      -7.58902481     -11.84766277      -0.00000000
O       -8.48545611      -2.53711759      -8.44627784      -0.00000000
O      -11.99265495     -17.70774741      -4.92897206      -0.00000000
O       -2.20245156     -10.03731958      -1.39232770      -0.00000000
O      -18.27565950     -10.20754542     -11.98292220      -0.00000000
O       -8.03660397     -20.15975208      -8.07995265      -0.00000000
O      -12.44150709      -0.08511292      -5.29529725      -0.00000000
O       -2.00247769      -7.41522329      -1.02293264      -0.00000000
O      -18.47563337     -12.82964171     -12.35231726      -0.00000000
O       -8.23657784     -17.53765579      -7.71055759      -0.00000000
O      -12.24153322      -2.70720921      -5.66469231       0.00000000
O       -6.13498794     -12.74507815      -1.77589772       0.00000000
O      -14.34312312      -7.49978685     -11.59935218      -0.00000000
O       -4.10406759      -2.62635555      -8.69458843      -0.00000000
O      -16.37404347     -17.61850945      -4.68066147      -0.00000000
O       -5.94280558     -10.17545096      -1.23656278      -0.00000000
O      -14.53530548     -10.06941404     -12.13868712      -0.00000000
O       -4.29624995      -0.05672836      -8.15525349      -0.00000000
O      -16.18186111     -20.18813664      -5.21999641      -0.00000000
O       -6.24733106      -7.54468491      -1.01996595       0.00000000
O      -14.23078000     -12.70018009     -12.35528395       0.00000000
O       -3.99172447     -17.66711741      -7.70759090       0.00000000
O      -16.48638659      -2.57774759      -5.66765900      -0.00000000
O      -10.17218876     -11.16365027      -3.90598188      -0.00000000
O      -10.30592230      -9.08121473      -9.46926802      -0.00000000
O       -0.06686677      -1.04492767     -10.82467259      -0.00000000
O      -20.41124429     -19.19993733      -2.55057731      -0.00000000
O      -10.28749548      -7.13590443      -3.87223309      -0.00000000
O      -10.19061558     -13.10896057      -9.50301681      -0.00000000
O      -20.42967111     -17.25833693     -10.55985804      -0.00000000
O       -0.04843995      -2.98652807      -2.81539186      -0.00000000
O       -1.56013144      -5.05510322      -2.10488240      -0.00000000
O      -18.91797962     -15.18976178     -11.27036750      -0.00000000
O       -8.67892409     -15.17753572      -8.79250735      -0.00000000
O      -11.79918697      -5.06732928      -4.58274255      -0.00000000
O       -6.17038005      -5.18813202      -2.18163505      -0.00000000
O      -14.30773101     -15.05673298     -11.19361485      -0.00000000
O       -4.06867548     -15.31056452      -8.86926000      -0.00000000
O      -16.40943558      -4.93430048      -4.50598990      -0.00000000
O       -4.46091711      -5.01071355      -7.66343535      -0.00000000
O      -16.01719395     -15.23415145      -5.71181455       0.00000000
O       -5.77813842     -15.12943615      -0.74474464       0.00000000
O      -14.69997264      -5.11542885     -12.63050526       0.00000000
O       -7.98250592      -5.01275816      -7.68732573      -0.00000000
O      -12.49560514     -15.23210684      -5.68792417      -0.00000000
O       -2.25654961     -15.13148076      -0.76863502      -0.00000000
O      -18.22156145      -5.11338424     -12.60661488      -0.00000000
O       -2.46019439     -19.23616755      -3.30502202       0.00000000
O      -18.01791667      -1.00869745     -10.07022788       0.00000000
O       -7.77886114      -9.11744495     -10.22371273      -0.00000000
O      -12.69924992     -11.12742005      -3.15153717      -0.00000000
O       -3.80965788     -19.18992208      -5.56123782      -0.00000000
O      -16.66845318      -1.05494292      -7.81401208      -0.00000000
O       -6.42939765      -9.07119948     -12.47992853      -0.00000000
O      -14.04871341     -11.17366552      -0.89532137      -0.00000000
O       -6.16342917     -18.86407187      -6.71930442      -0.00000000
O      -14.31468189      -1.38079313      -6.65594548      -0.00000000
O       -4.07562636      -8.74163937      -0.03167947      -0.00000000
O      -16.40248470     -11.50322563     -13.34357043      -0.00000000
O       -8.57101263     -19.18396987      -5.67676021      -0.00000000
O      -11.90709843      -1.06089513      -7.69848969      -0.00000000
O       -1.66804290      -9.06524727     -12.59545092      -0.00000000
O      -18.81006816     -11.17961773      -0.77979898      -0.00000000
O       -7.76660007     -18.93264010      -3.14594052      -0.00000000
O      -12.71151099      -1.31222490     -10.22930938      -0.00000000
O       -2.47245546      -8.81391750     -10.06463123      -0.00000000
O      -18.00565560     -11.43094750      -3.31061867      -0.00000000
O       -5.10807088     -19.03190190      -3.25166234      -0.00000000
O      -15.37004018      -1.21296310     -10.12358756      -0.00000000
O       -5.13098465      -8.91317930     -10.17035305      -0.00000000
O      -15.34712641     -11.33168570      -3.20489685      -0.00000000
O       -2.46454783      -3.21779765      -3.81200121      -0.00000000
O      -18.01356323     -17.02706735      -9.56324869      -0.00000000
O       -7.77450770     -13.34023015     -10.49962616      -0.00000000
O      -12.70360336      -6.90463485      -2.87562374      -0.00000000
O       -3.79860011      -2.95614784      -6.07814656       0.00000000
O      -16.67951095     -17.28871716      -7.29710334      -0.00000000
O       -6.44045542     -13.07858034     -12.76577151      -0.00000000
O      -14.03765564      -7.16628466      -0.60947839      -0.00000000
O       -6.22349167      -3.07130033      -7.13971486      -0.00000000
O      -14.25461939     -17.17356467      -6.23553504      -0.00000000
O       -4.01556386     -13.19002293      -0.22102415      -0.00000000
O      -16.46254720      -7.05484207     -13.15422575      -0.00000000
O       -8.55009383      -3.15950424      -5.88278165      -0.00000000
O      -11.92801723     -17.08536076      -7.49246825      -0.00000000
O       -1.68896170     -13.28193674     -12.57040660      -0.00000000
O      -18.78914936      -6.96292826      -0.80484330      -0.00000000
O       -7.71897925      -3.39404504      -3.35848932      -0.00000000
O      -12.75913181     -16.85081996     -10.01676058      -0.00000000
O       -2.52007628     -13.51647754     -10.04611427      -0.00000000
O      -17.95803478      -6.72838746      -3.32913563      -0.00000000
O       -5.11974790      -3.42760861      -3.84842135      -0.00000000
O      -15.35836316     -16.81725639      -9.52682855      -0.00000000
O       -5.11930763     -13.55004111     -10.53604630      -0.00000000
O      -15.35880343      -6.69482389      -2.83920360      -0.00000000
O       -3.98279622      -1.07192672      -4.19055119      -0.00000000
O      -16.49531484     -19.17293828      -9.18469871      -0.00000000
O       -6.25625931     -11.19435922     -10.87817614      -0.00000000
O      -14.22185175      -9.05050578      -2.49707376      -0.00000000
O       -8.49812182      -1.04972922      -4.29388636      -0.00000000
O      -11.97998924     -19.19513578      -9.08136354      -0.00000000
O       -1.74093371     -11.17216172     -10.98151131      -0.00000000
O      -18.73717735      -9.07270328      -2.39373859      -0.00000000
O       -1.66845676     -17.64320573      -1.31916010      -0.00000000
O      -18.80965430      -2.60165927     -12.05608980      -0.00000000
O       -8.57059877      -7.52448313      -8.23785081      -0.00000000
O      -11.90751229     -12.72038187      -5.13739909      -0.00000000
O       -1.73477226      -0.03217265      -1.17977080      -0.00000000
O      -18.74333880     -20.21269235     -12.19547910      -0.00000000
O       -8.50428327     -10.15460515      -7.86739575      -0.00000000
O      -11.97382779     -10.09025985      -5.50785415      -0.00000000
O       -2.17171474      -2.66605482      -1.21369596      -0.00000000
O      -18.30639632     -17.57881018     -12.16155394      -0.00000000
O       -8.06734079     -12.78848732      -7.90132091      -0.00000000
O      -12.41077027      -7.45637768      -5.47392899      -0.00000000
O       -6.34506223     -17.63548397      -1.36910957      -0.00000000
O      -14.13304883      -2.60938103     -12.00614033      -0.00000000
O       -3.89399330      -7.51676137      -8.28780028      -0.00000000
O      -16.58411776     -12.72810363      -5.08744962      -0.00000000
O       -6.42610026      -0.06134024      -1.54797257       0.00000000
O      -14.05201080     -20.18352476     -11.82727733      -0.00000000
O       -3.81295527     -10.18377274      -8.23559752      -0.00000000
O      -16.66515579     -10.06109226      -5.13965238      -0.00000000
O       -5.99430434      -2.68050622      -1.44374825      -0.00000000
O      -14.48380672     -17.56435878     -11.93150165      -0.00000000
O       -4.24475119     -12.80293872      -8.13137320      -0.00000000
O      -16.23335987      -7.44192628      -5.24387670      -0.00000000
O      -10.31973130     -19.38201092      -3.72495040      -0.00000000
O      -10.15837976      -0.86285408      -9.65029950      -0.00000000
O      -20.39743529      -9.26328832     -10.64364111      -0.00000000
O       -0.08067577     -10.98157668      -2.73160879      -0.00000000
O      -10.26640896      -3.00043268      -3.88848265      -0.00000000
O      -10.21170210     -17.24443232      -9.48676725      -0.00000000
O      -20.45075763     -13.12286518     -10.57610760      -0.00000000
O       -0.02735343      -7.12199982      -2.79914230      -0.00000000
144
Lattice="15.485202 0.0 0.0 0.0 15.485202 0.0 0.0 0.0 12.009347" Properties=species:S:1:pos:R:3:initial_magmoms:R:1 material_id=mp-1203655 energy_per_atom_eV=-7.891139429375 total_energy_eV=-1136.32407783 functional="GGA (PBE)" comment="MP_ID=mp-1203655 Thermo_Type=GGA_GGA+U Total_Energy=-1136.3241_eV" pbc="T T T"
Si       9.16891199       3.61488104       9.76483607       0.00000000
Si       6.31629001      11.87032096       9.76483607       0.00000000
Si       1.42631099       4.12771996       9.76483607       0.00000000
Si      14.05889101      11.35748204       9.76483607       0.00000000
Si      11.87032096       9.16891199       9.76483607       0.00000000
Si       3.61488104       6.31629001       9.76483607       0.00000000